
     Program PWSCF v.7.5 starts on 17Apr2026 at 15:22:48 

     This program is part of the open-source Quantum ESPRESSO suite
     for quantum simulation of materials; please cite
         "P. Giannozzi et al., J. Phys.:Condens. Matter 21 395502 (2009);
         "P. Giannozzi et al., J. Phys.:Condens. Matter 29 465901 (2017);
         "P. Giannozzi et al., J. Chem. Phys. 152 154105 (2020);
          URL http://www.quantum-espresso.org", 
     in publications or presentations arising from this work. More details at
     http://www.quantum-espresso.org/quote

     Parallel version (MPI & OpenMP), running on      16 processor cores
     Number of MPI processes:                 8
     Threads/MPI process:                     2

     MPI processes distributed on     1 nodes
     6886 MiB available memory on the printing compute node when the environment starts

     Reading input from scf.in
Warning: card &CELL ignored

     Current dimensions of program PWSCF are:
     Max number of different atomic species (ntypx) = 10
     Max number of k-points (npk) =  40000
     Max angular momentum in pseudopotentials (lmaxx) =  4
     file Tb.paw.z_19.atompaw.wentzcovitch.v1.2.upf: wavefunction(s)  6S 0P 5D 0D 4F 0F renormalized
     Message from routine setup:
     using ibrav=0 with symmetry is DISCOURAGED, use correct ibrav instead

     R & G space division:  proc/nbgrp/npool/nimage =       8
     Subspace diagonalization in iterative solution of the eigenvalue problem:
     one sub-group per band group will be used
     ELPA distributed-memory algorithm (size of sub-group:  2*  2 procs)


     Parallelization info
     --------------------
     sticks:   dense  smooth     PW     G-vecs:    dense   smooth      PW
     Min         664     332     91                65626    23200    3368
     Max         665     333     92                65633    23205    3375
     Sum        5319    2657    733               525049   185615   26975

     Using Slab Decomposition



     bravais-lattice index     =            0
     lattice parameter (alat)  =      14.4922  a.u.
     unit-cell volume          =    2955.7968 (a.u.)^3
     number of atoms/cell      =           36
     number of atomic types    =            3
     number of electrons       =       268.00
     number of Kohn-Sham states=          154
     kinetic-energy cutoff     =      60.0000  Ry
     charge density cutoff     =     480.0000  Ry
     scf convergence threshold =      1.0E-08
     mixing beta               =       0.4000
     number of iterations used =            8  plain     mixing
     Exchange-correlation= SLA PW PBX PBC
                           (   1   4   3   4   0   0   0)

     celldm(1)=  14.492228  celldm(2)=   0.000000  celldm(3)=   0.000000
     celldm(4)=   0.000000  celldm(5)=   0.000000  celldm(6)=   0.000000

     crystal axes: (cart. coord. in units of alat)
               a(1) = (   0.000000   1.000000   0.000000 )  
               a(2) = (   0.662681   0.000000   0.000000 )  
               a(3) = (   0.000000  -0.432247  -1.465428 )  

     reciprocal axes: (cart. coord. in units 2 pi/alat)
               b(1) = (  0.000000  1.000000 -0.294963 )  
               b(2) = (  1.509022 -0.000000  0.000000 )  
               b(3) = (  0.000000  0.000000 -0.682394 )  


     PseudoPot. # 1 for F  read from file:
     /mnt/d/DeepESense/pseudo/SSSP_1.3.0_PBE_efficiency/f_pbe_v1.4.uspp.F.UPF
     MD5 check sum: 4c38b6a325caf53ec0e86aed9459de46
     Pseudo is Ultrasoft, Zval =  7.0
     Generated by new atomic code, or converted to UPF format
     Using radial grid of  799 points,  4 beta functions with: 
                l(1) =   0
                l(2) =   0
                l(3) =   1
                l(4) =   1
     Q(r) pseudized with  8 coefficients,  rinner =    0.950   0.950   0.950


     PseudoPot. # 2 for Li read from file:
     /mnt/d/DeepESense/pseudo/SSSP_1.3.0_PBE_efficiency/li_pbe_v1.4.uspp.F.UPF
     MD5 check sum: e912e257baa3777c20ea3d68f190483c
     Pseudo is Ultrasoft, Zval =  3.0
     Generated by new atomic code, or converted to UPF format
     Using radial grid of  751 points,  5 beta functions with: 
                l(1) =   0
                l(2) =   0
                l(3) =   0
                l(4) =   1
                l(5) =   1
     Q(r) pseudized with 10 coefficients,  rinner =    1.150   1.150   1.150


     PseudoPot. # 3 for Tb read from file:
     /mnt/d/DeepESense/pseudo/SSSP_1.3.0_PBE_efficiency/Tb.paw.z_19.atompaw.wentzcovitch.v1.2.upf
     MD5 check sum: 9e397ff4c8e7fcf344a3e57e25721bc0
     Pseudo is Projector augmented-wave + core cor, Zval = 19.0
     Generated using ATOMPAW code
     Shape of augmentation charge: BESSEL
     Using radial grid of 1111 points,  8 beta functions with: 
                l(1) =   0
                l(2) =   0
                l(3) =   1
                l(4) =   1
                l(5) =   2
                l(6) =   2
                l(7) =   3
                l(8) =   3
     Q(r) pseudized with 0 coefficients 


     atomic species   valence    mass     pseudopotential
     F                 7.00    18.99840     F ( 1.00)
     Li                3.00     6.94100     Li( 1.00)
     Tb               19.00   158.92540     Tb( 1.00)

      4 Sym. Ops., with inversion, found ( 2 have fractional translation)



   Cartesian axes

     site n.     atom                  positions (alat units)
         1        Li     tau(   1) = (   0.3282736   0.2957538  -1.0199600  )
         2        Li     tau(   2) = (   0.6596141   0.0558762  -1.1781823  )
         3        Li     tau(   3) = (   0.3344074   0.2719995  -0.4454682  )
         4        Li     tau(   4) = (   0.0030669   0.5118772  -0.2872459  )
         5        Li     tau(   5) = (   0.6524817   0.6100045  -1.2314286  )
         6        Li     tau(   6) = (   0.3211412  -0.2583745  -0.9667137  )
         7        Li     tau(   7) = (   0.0101993  -0.0422511  -0.2339996  )
         8        Li     tau(   8) = (   0.3415398   0.8261278  -0.4987145  )
         9        Tb     tau(   9) = (   0.3439712   0.7501343  -0.0022773  )
        10        Tb     tau(  10) = (   0.0126307   0.0337424  -0.7304368  )
        11        Tb     tau(  11) = (   0.3187098  -0.1823809  -1.4631509  )
        12        Tb     tau(  12) = (   0.6500503   0.5340110  -0.7349914  )
        13        F      tau(  13) = (   0.1273620   0.2909027  -0.8469692  )
        14        F      tau(  14) = (   0.4587025   0.0607273  -1.3511732  )
        15        F      tau(  15) = (   0.5353190   0.2768506  -0.6184591  )
        16        F      tau(  16) = (   0.2039785   0.5070260  -0.1142550  )
        17        F      tau(  17) = (   0.2338807   0.8345525  -0.2669644  )
        18        F      tau(  18) = (   0.5652212  -0.0506758  -0.4657497  )
        19        F      tau(  19) = (   0.4288003  -0.2667991  -1.1984638  )
        20        F      tau(  20) = (   0.0974598   0.6184291  -0.9996785  )
        21        F      tau(  21) = (   0.1560879   0.7631847  -0.6652751  )
        22        F      tau(  22) = (   0.4874284   0.0206920  -0.0674390  )
        23        F      tau(  23) = (   0.5065931  -0.1954313  -0.8001531  )
        24        F      tau(  24) = (   0.1752526   0.5470613  -1.3979892  )
        25        F      tau(  25) = (   0.1518646   0.4470224  -0.4943051  )
        26        F      tau(  26) = (   0.4832051   0.3368542  -0.2384091  )
        27        F      tau(  27) = (   0.5108164   0.1207309  -0.9711232  )
        28        F      tau(  28) = (   0.1794759   0.2308991  -1.2270192  )
        29        F      tau(  29) = (   0.4071161   0.4905508  -0.8844753  )
        30        F      tau(  30) = (   0.0757756  -0.1389208  -1.3136670  )
        31        F      tau(  31) = (   0.2555649   0.0772026  -0.5809529  )
        32        F      tau(  32) = (   0.5869054   0.7066741  -0.1517612  )
        33        F      tau(  33) = (   0.4904403   0.6124942  -0.4941600  )
        34        F      tau(  34) = (   0.1590998   0.1713824  -0.2385541  )
        35        F      tau(  35) = (   0.1722407  -0.0447409  -0.9712682  )
        36        F      tau(  36) = (   0.5035812   0.3963709  -1.2268741  )

     number of k points=    28  Marzari-Vanderbilt smearing, width (Ry)=  0.0050
                       cart. coord. in units 2pi/alat
        k(    1) = (   0.0000000   0.0000000   0.0000000), wk =   0.0277778
        k(    2) = (   0.0000000   0.0000000  -0.2274648), wk =   0.0555556
        k(    3) = (   0.2515036   0.0000000   0.0000000), wk =   0.0555556
        k(    4) = (   0.2515036   0.0000000  -0.2274648), wk =   0.1111111
        k(    5) = (   0.5030072   0.0000000   0.0000000), wk =   0.0555556
        k(    6) = (   0.5030072   0.0000000  -0.2274648), wk =   0.1111111
        k(    7) = (  -0.7545109   0.0000000  -0.0000000), wk =   0.0277778
        k(    8) = (  -0.7545109   0.0000000  -0.2274648), wk =   0.0555556
        k(    9) = (   0.0000000   0.2500000  -0.0737407), wk =   0.0555556
        k(   10) = (   0.0000000   0.2500000  -0.3012055), wk =   0.0555556
        k(   11) = (   0.0000000   0.2500000   0.1537241), wk =   0.0555556
        k(   12) = (   0.2515036   0.2500000  -0.0737407), wk =   0.1111111
        k(   13) = (   0.2515036   0.2500000  -0.3012055), wk =   0.1111111
        k(   14) = (   0.2515036   0.2500000   0.1537241), wk =   0.1111111
        k(   15) = (   0.5030072   0.2500000  -0.0737407), wk =   0.1111111
        k(   16) = (   0.5030072   0.2500000  -0.3012055), wk =   0.1111111
        k(   17) = (   0.5030072   0.2500000   0.1537241), wk =   0.1111111
        k(   18) = (  -0.7545109   0.2500000  -0.0737407), wk =   0.0555556
        k(   19) = (  -0.7545109   0.2500000  -0.3012055), wk =   0.0555556
        k(   20) = (  -0.7545109   0.2500000   0.1537241), wk =   0.0555556
        k(   21) = (   0.0000000  -0.5000000   0.1474813), wk =   0.0277778
        k(   22) = (   0.0000000  -0.5000000  -0.0799835), wk =   0.0555556
        k(   23) = (   0.2515036  -0.5000000   0.1474813), wk =   0.0555556
        k(   24) = (   0.2515036  -0.5000000  -0.0799835), wk =   0.1111111
        k(   25) = (   0.5030072  -0.5000000   0.1474813), wk =   0.0555556
        k(   26) = (   0.5030072  -0.5000000  -0.0799835), wk =   0.1111111
        k(   27) = (  -0.7545109  -0.5000000   0.1474813), wk =   0.0277778
        k(   28) = (  -0.7545109  -0.5000000  -0.0799835), wk =   0.0555556

     Dense  grid:   525049 G-vectors     FFT dimensions: ( 108,  72, 160)

     Smooth grid:   185615 G-vectors     FFT dimensions: (  72,  48, 120)

     Estimated max dynamical RAM per process >     895.92 MB

     Estimated total dynamical RAM >       7.00 GB

     Initial potential from superposition of free atoms

     starting charge     264.3764, renormalised to     268.0000
     Starting wfcs are  264 randomized atomic wfcs
     Checking if some PAW data can be deallocated... 

     total cpu time spent up to now is      118.6 secs

     per-process dynamical memory:   312.7 Mb

     Self-consistent Calculation

     iteration #  1     ecut=    60.00 Ry     beta= 0.40
     Davidson diagonalization with overlap
     ethr =  1.00E-02,  avg # of iterations =  2.0

     total cpu time spent up to now is      287.1 secs

     total energy              =   -4195.18916631 Ry
     estimated scf accuracy    <       9.89004286 Ry

     iteration #  2     ecut=    60.00 Ry     beta= 0.40
     Davidson diagonalization with overlap
     ethr =  3.69E-03,  avg # of iterations =  5.0

     total cpu time spent up to now is      413.2 secs

     total energy              =   -4188.17699373 Ry
     estimated scf accuracy    <     157.41368305 Ry

     iteration #  3     ecut=    60.00 Ry     beta= 0.40
     Davidson diagonalization with overlap
     ethr =  3.69E-03,  avg # of iterations =  2.0

     total cpu time spent up to now is      488.1 secs

     total energy              =   -4201.39686361 Ry
     estimated scf accuracy    <       6.89079217 Ry

     iteration #  4     ecut=    60.00 Ry     beta= 0.40
     Davidson diagonalization with overlap
     ethr =  2.57E-03,  avg # of iterations =  1.0

     total cpu time spent up to now is      571.2 secs

     total energy              =   -4199.43909069 Ry
     estimated scf accuracy    <       5.46154615 Ry

     iteration #  5     ecut=    60.00 Ry     beta= 0.40
     Davidson diagonalization with overlap
     ethr =  2.04E-03,  avg # of iterations =  1.0

     total cpu time spent up to now is      633.5 secs

     total energy              =   -4200.88478336 Ry
     estimated scf accuracy    <       4.20990119 Ry

     iteration #  6     ecut=    60.00 Ry     beta= 0.40
     Davidson diagonalization with overlap
     ethr =  1.57E-03,  avg # of iterations =  1.0

     total cpu time spent up to now is      699.5 secs

     total energy              =   -4200.43296202 Ry
     estimated scf accuracy    <       3.16110906 Ry

     iteration #  7     ecut=    60.00 Ry     beta= 0.40
     Davidson diagonalization with overlap
     ethr =  1.18E-03,  avg # of iterations =  1.0

     total cpu time spent up to now is      761.6 secs

     total energy              =   -4200.34900057 Ry
     estimated scf accuracy    <       2.55151577 Ry

     iteration #  8     ecut=    60.00 Ry     beta= 0.40
     Davidson diagonalization with overlap
     ethr =  9.52E-04,  avg # of iterations =  1.0

     total cpu time spent up to now is      820.3 secs

     total energy              =   -4200.06210490 Ry
     estimated scf accuracy    <       2.37974449 Ry

     iteration #  9     ecut=    60.00 Ry     beta= 0.40
     Davidson diagonalization with overlap
     ethr =  8.88E-04,  avg # of iterations =  1.0

     total cpu time spent up to now is      886.0 secs

     total energy              =   -4200.46083509 Ry
     estimated scf accuracy    <       1.04387216 Ry

     iteration # 10     ecut=    60.00 Ry     beta= 0.40
     Davidson diagonalization with overlap
     ethr =  3.90E-04,  avg # of iterations =  1.0

     total cpu time spent up to now is      944.1 secs

     total energy              =   -4200.47604630 Ry
     estimated scf accuracy    <       1.15606638 Ry

     iteration # 11     ecut=    60.00 Ry     beta= 0.40
     Davidson diagonalization with overlap
     ethr =  3.90E-04,  avg # of iterations =  1.0

     total cpu time spent up to now is     1087.0 secs

     total energy              =   -4200.26824175 Ry
     estimated scf accuracy    <       0.84024264 Ry

     iteration # 12     ecut=    60.00 Ry     beta= 0.40
     Davidson diagonalization with overlap
     ethr =  3.14E-04,  avg # of iterations =  3.0

     total cpu time spent up to now is     1159.8 secs

     total energy              =   -4198.95415110 Ry
     estimated scf accuracy    <      41.71127117 Ry

     iteration # 13     ecut=    60.00 Ry     beta= 0.40
     Davidson diagonalization with overlap
     ethr =  3.14E-04,  avg # of iterations =  1.2

     total cpu time spent up to now is     1221.7 secs

     total energy              =   -4200.27406641 Ry
     estimated scf accuracy    <       1.31112592 Ry

     iteration # 14     ecut=    60.00 Ry     beta= 0.40
     Davidson diagonalization with overlap
     ethr =  3.14E-04,  avg # of iterations =  1.0

     total cpu time spent up to now is     1281.7 secs

     total energy              =   -4200.30111497 Ry
     estimated scf accuracy    <       0.29061581 Ry

     iteration # 15     ecut=    60.00 Ry     beta= 0.40
     Davidson diagonalization with overlap
     ethr =  1.08E-04,  avg # of iterations =  2.4

     total cpu time spent up to now is     1352.4 secs

     total energy              =   -4200.30836571 Ry
     estimated scf accuracy    <       0.16476240 Ry

     iteration # 16     ecut=    60.00 Ry     beta= 0.40
     Davidson diagonalization with overlap
     c_bands:  1 eigenvalues not converged
     c_bands:  1 eigenvalues not converged
     c_bands:  1 eigenvalues not converged
     ethr =  6.15E-05,  avg # of iterations =  8.6

     total cpu time spent up to now is     1449.6 secs

     total energy              =   -4200.30984057 Ry
     estimated scf accuracy    <       0.22172851 Ry

     iteration # 17     ecut=    60.00 Ry     beta= 0.40
     Davidson diagonalization with overlap
     ethr =  6.15E-05,  avg # of iterations =  1.2

     total cpu time spent up to now is     1511.7 secs

     total energy              =   -4200.30914983 Ry
     estimated scf accuracy    <       0.14676389 Ry

     iteration # 18     ecut=    60.00 Ry     beta= 0.40
     Davidson diagonalization with overlap
     ethr =  5.48E-05,  avg # of iterations =  1.2

     total cpu time spent up to now is     1578.3 secs

     total energy              =   -4200.30795730 Ry
     estimated scf accuracy    <       0.19864604 Ry

     iteration # 19     ecut=    60.00 Ry     beta= 0.40
     Davidson diagonalization with overlap
     ethr =  5.48E-05,  avg # of iterations =  1.0

     total cpu time spent up to now is     1640.2 secs

     total energy              =   -4200.32456752 Ry
     estimated scf accuracy    <       0.09921305 Ry

     iteration # 20     ecut=    60.00 Ry     beta= 0.40
     Davidson diagonalization with overlap
     ethr =  3.70E-05,  avg # of iterations =  2.0

     total cpu time spent up to now is     1706.3 secs

     total energy              =   -4200.32586766 Ry
     estimated scf accuracy    <       0.04755607 Ry

     iteration # 21     ecut=    60.00 Ry     beta= 0.40
     Davidson diagonalization with overlap
     c_bands:  1 eigenvalues not converged
     c_bands:  1 eigenvalues not converged
     c_bands:  1 eigenvalues not converged
     ethr =  1.77E-05,  avg # of iterations =  8.1

     total cpu time spent up to now is     1804.1 secs

     total energy              =   -4200.31364002 Ry
     estimated scf accuracy    <       0.06407128 Ry

     iteration # 22     ecut=    60.00 Ry     beta= 0.40
     Davidson diagonalization with overlap
     ethr =  1.77E-05,  avg # of iterations =  2.5

     total cpu time spent up to now is     1876.8 secs

     total energy              =   -4200.31974859 Ry
     estimated scf accuracy    <       0.06662554 Ry

     iteration # 23     ecut=    60.00 Ry     beta= 0.40
     Davidson diagonalization with overlap
     ethr =  1.77E-05,  avg # of iterations =  1.0

     total cpu time spent up to now is     1941.0 secs

     total energy              =   -4200.32316223 Ry
     estimated scf accuracy    <       0.00978424 Ry

     iteration # 24     ecut=    60.00 Ry     beta= 0.40
     Davidson diagonalization with overlap
     c_bands:  1 eigenvalues not converged
     c_bands:  2 eigenvalues not converged
     c_bands:  2 eigenvalues not converged
     c_bands:  2 eigenvalues not converged
     ethr =  3.65E-06,  avg # of iterations = 11.9

     total cpu time spent up to now is     2057.7 secs

     total energy              =   -4200.32400716 Ry
     estimated scf accuracy    <       0.01080632 Ry

     iteration # 25     ecut=    60.00 Ry     beta= 0.40
     Davidson diagonalization with overlap
     ethr =  3.65E-06,  avg # of iterations =  3.2

     total cpu time spent up to now is     2137.5 secs

     total energy              =   -4200.32534219 Ry
     estimated scf accuracy    <       0.00130129 Ry

     iteration # 26     ecut=    60.00 Ry     beta= 0.40
     Davidson diagonalization with overlap
     c_bands:  1 eigenvalues not converged
     ethr =  4.86E-07,  avg # of iterations =  4.1

     total cpu time spent up to now is     2224.3 secs

     total energy              =   -4200.32588366 Ry
     estimated scf accuracy    <       0.00323409 Ry

     iteration # 27     ecut=    60.00 Ry     beta= 0.40
     Davidson diagonalization with overlap
     ethr =  4.86E-07,  avg # of iterations =  1.4

     total cpu time spent up to now is     2304.3 secs

     total energy              =   -4200.32637109 Ry
     estimated scf accuracy    <       0.00076643 Ry

     iteration # 28     ecut=    60.00 Ry     beta= 0.40
     Davidson diagonalization with overlap
     ethr =  2.86E-07,  avg # of iterations =  1.1

     total cpu time spent up to now is     2374.7 secs

     total energy              =   -4200.32698059 Ry
     estimated scf accuracy    <       0.00081569 Ry

     iteration # 29     ecut=    60.00 Ry     beta= 0.40
     Davidson diagonalization with overlap
     ethr =  2.86E-07,  avg # of iterations =  1.0

     total cpu time spent up to now is     2442.4 secs

     total energy              =   -4200.32705168 Ry
     estimated scf accuracy    <       0.00132064 Ry

     iteration # 30     ecut=    60.00 Ry     beta= 0.40
     Davidson diagonalization with overlap
     ethr =  2.86E-07,  avg # of iterations =  1.0

     total cpu time spent up to now is     2509.2 secs

     total energy              =   -4200.32758224 Ry
     estimated scf accuracy    <       0.00059699 Ry

     iteration # 31     ecut=    60.00 Ry     beta= 0.40
     Davidson diagonalization with overlap
     ethr =  2.23E-07,  avg # of iterations =  1.0

     total cpu time spent up to now is     2590.5 secs

     total energy              =   -4200.32799331 Ry
     estimated scf accuracy    <       0.00019116 Ry

     iteration # 32     ecut=    60.00 Ry     beta= 0.40
     Davidson diagonalization with overlap
     ethr =  7.13E-08,  avg # of iterations =  2.0

     total cpu time spent up to now is     2698.9 secs

     total energy              =   -4200.32812525 Ry
     estimated scf accuracy    <       0.00007510 Ry

     iteration # 33     ecut=    60.00 Ry     beta= 0.40
     Davidson diagonalization with overlap
     ethr =  2.80E-08,  avg # of iterations =  2.0

     total cpu time spent up to now is     2799.7 secs

     total energy              =   -4200.32812296 Ry
     estimated scf accuracy    <       0.00047138 Ry

     iteration # 34     ecut=    60.00 Ry     beta= 0.40
     Davidson diagonalization with overlap
     ethr =  2.80E-08,  avg # of iterations =  1.1

     total cpu time spent up to now is     2879.6 secs

     total energy              =   -4200.32816824 Ry
     estimated scf accuracy    <       0.00021253 Ry

     iteration # 35     ecut=    60.00 Ry     beta= 0.40
     Davidson diagonalization with overlap
     ethr =  2.80E-08,  avg # of iterations =  2.0

     total cpu time spent up to now is     2965.5 secs

     total energy              =   -4200.32823045 Ry
     estimated scf accuracy    <       0.00009664 Ry

     iteration # 36     ecut=    60.00 Ry     beta= 0.40
     Davidson diagonalization with overlap
     ethr =  2.80E-08,  avg # of iterations =  1.0

     total cpu time spent up to now is     3040.7 secs

     total energy              =   -4200.32827853 Ry
     estimated scf accuracy    <       0.00006160 Ry

     iteration # 37     ecut=    60.00 Ry     beta= 0.40
     Davidson diagonalization with overlap
     ethr =  2.30E-08,  avg # of iterations =  1.0

     total cpu time spent up to now is     3110.4 secs

     total energy              =   -4200.32830488 Ry
     estimated scf accuracy    <       0.00003329 Ry

     iteration # 38     ecut=    60.00 Ry     beta= 0.40
     Davidson diagonalization with overlap
     ethr =  1.24E-08,  avg # of iterations =  1.0

     total cpu time spent up to now is     3175.0 secs

     total energy              =   -4200.32831368 Ry
     estimated scf accuracy    <       0.00002177 Ry

     iteration # 39     ecut=    60.00 Ry     beta= 0.40
     Davidson diagonalization with overlap
     ethr =  8.12E-09,  avg # of iterations =  1.0

     total cpu time spent up to now is     3249.5 secs

     total energy              =   -4200.32831917 Ry
     estimated scf accuracy    <       0.00004649 Ry

     iteration # 40     ecut=    60.00 Ry     beta= 0.40
     Davidson diagonalization with overlap
     ethr =  8.12E-09,  avg # of iterations =  1.0

     total cpu time spent up to now is     3318.2 secs

     total energy              =   -4200.32833742 Ry
     estimated scf accuracy    <       0.00000825 Ry

     iteration # 41     ecut=    60.00 Ry     beta= 0.40
     Davidson diagonalization with overlap
     ethr =  3.08E-09,  avg # of iterations =  1.0

     total cpu time spent up to now is     3389.5 secs

     total energy              =   -4200.32834971 Ry
     estimated scf accuracy    <       0.00000353 Ry

     iteration # 42     ecut=    60.00 Ry     beta= 0.40
     Davidson diagonalization with overlap
     ethr =  1.32E-09,  avg # of iterations =  2.0

     total cpu time spent up to now is     3466.0 secs

     total energy              =   -4200.32835983 Ry
     estimated scf accuracy    <       0.00000450 Ry

     iteration # 43     ecut=    60.00 Ry     beta= 0.40
     Davidson diagonalization with overlap
     ethr =  1.32E-09,  avg # of iterations =  2.0

     total cpu time spent up to now is     3559.3 secs

     total energy              =   -4200.32835605 Ry
     estimated scf accuracy    <       0.00000658 Ry

     iteration # 44     ecut=    60.00 Ry     beta= 0.40
     Davidson diagonalization with overlap
     ethr =  1.32E-09,  avg # of iterations =  1.0

     total cpu time spent up to now is     3624.6 secs

     total energy              =   -4200.32836324 Ry
     estimated scf accuracy    <       0.00000705 Ry

     iteration # 45     ecut=    60.00 Ry     beta= 0.40
     Davidson diagonalization with overlap
     ethr =  1.32E-09,  avg # of iterations =  2.0

     total cpu time spent up to now is     3717.0 secs

     total energy              =   -4200.32837241 Ry
     estimated scf accuracy    <       0.00000288 Ry

     iteration # 46     ecut=    60.00 Ry     beta= 0.40
     Davidson diagonalization with overlap
     ethr =  1.08E-09,  avg # of iterations =  1.0

     total cpu time spent up to now is     3785.1 secs

     total energy              =   -4200.32837206 Ry
     estimated scf accuracy    <       0.00000386 Ry

     iteration # 47     ecut=    60.00 Ry     beta= 0.40
     Davidson diagonalization with overlap
     ethr =  1.08E-09,  avg # of iterations =  1.0

     total cpu time spent up to now is     3850.7 secs

     total energy              =   -4200.32837307 Ry
     estimated scf accuracy    <       0.00001621 Ry

     iteration # 48     ecut=    60.00 Ry     beta= 0.40
     Davidson diagonalization with overlap
     ethr =  1.08E-09,  avg # of iterations =  1.7

     total cpu time spent up to now is     3929.0 secs

     total energy              =   -4200.32837844 Ry
     estimated scf accuracy    <       0.00000203 Ry

     iteration # 49     ecut=    60.00 Ry     beta= 0.40
     Davidson diagonalization with overlap
     ethr =  7.59E-10,  avg # of iterations =  1.0

     total cpu time spent up to now is     4002.7 secs

     total energy              =   -4200.32837817 Ry
     estimated scf accuracy    <       0.00000791 Ry

     iteration # 50     ecut=    60.00 Ry     beta= 0.40
     Davidson diagonalization with overlap
     ethr =  7.59E-10,  avg # of iterations =  1.0

     total cpu time spent up to now is     4063.7 secs

     total energy              =   -4200.32837948 Ry
     estimated scf accuracy    <       0.00000188 Ry

     iteration # 51     ecut=    60.00 Ry     beta= 0.40
     Davidson diagonalization with overlap
     ethr =  7.00E-10,  avg # of iterations =  1.0

     total cpu time spent up to now is     4128.3 secs

     total energy              =   -4200.32838018 Ry
     estimated scf accuracy    <       0.00000043 Ry

     iteration # 52     ecut=    60.00 Ry     beta= 0.40
     Davidson diagonalization with overlap
     ethr =  1.59E-10,  avg # of iterations =  1.0

     total cpu time spent up to now is     4203.0 secs

     total energy              =   -4200.32838027 Ry
     estimated scf accuracy    <       0.00000059 Ry

     iteration # 53     ecut=    60.00 Ry     beta= 0.40
     Davidson diagonalization with overlap
     ethr =  1.59E-10,  avg # of iterations =  1.0

     total cpu time spent up to now is     4270.9 secs

     total energy              =   -4200.32837924 Ry
     estimated scf accuracy    <       0.00000043 Ry

     iteration # 54     ecut=    60.00 Ry     beta= 0.40
     Davidson diagonalization with overlap
     ethr =  1.59E-10,  avg # of iterations =  2.0

     total cpu time spent up to now is     4349.5 secs

     total energy              =   -4200.32837983 Ry
     estimated scf accuracy    <       0.00000512 Ry

     iteration # 55     ecut=    60.00 Ry     beta= 0.40
     Davidson diagonalization with overlap
     ethr =  1.59E-10,  avg # of iterations =  1.0
