
     Program PWSCF v.7.5 starts on 17Apr2026 at 15:22:41 

     This program is part of the open-source Quantum ESPRESSO suite
     for quantum simulation of materials; please cite
         "P. Giannozzi et al., J. Phys.:Condens. Matter 21 395502 (2009);
         "P. Giannozzi et al., J. Phys.:Condens. Matter 29 465901 (2017);
         "P. Giannozzi et al., J. Chem. Phys. 152 154105 (2020);
          URL http://www.quantum-espresso.org", 
     in publications or presentations arising from this work. More details at
     http://www.quantum-espresso.org/quote

     Parallel version (MPI & OpenMP), running on      16 processor cores
     Number of MPI processes:                 8
     Threads/MPI process:                     2

     MPI processes distributed on     1 nodes
     6888 MiB available memory on the printing compute node when the environment starts

     Reading input from scf.in
Warning: card &CELL ignored

     Current dimensions of program PWSCF are:
     Max number of different atomic species (ntypx) = 10
     Max number of k-points (npk) =  40000
     Max angular momentum in pseudopotentials (lmaxx) =  4
     file Ba.pbe-spn-kjpaw_psl.1.0.0.UPF: wavefunction(s)  5S 6S renormalized
     file Tb.paw.z_19.atompaw.wentzcovitch.v1.2.upf: wavefunction(s)  6S 0P 5D 0D 4F 0F renormalized
     Message from routine setup:
     using ibrav=0 with symmetry is DISCOURAGED, use correct ibrav instead

     R & G space division:  proc/nbgrp/npool/nimage =       8
     Subspace diagonalization in iterative solution of the eigenvalue problem:
     one sub-group per band group will be used
     ELPA distributed-memory algorithm (size of sub-group:  2*  2 procs)


     Parallelization info
     --------------------
     sticks:   dense  smooth     PW     G-vecs:    dense   smooth      PW
     Min        1036     518    146                77595    27431    4119
     Max        1037     519    147                77597    27433    4121
     Sum        8295    4145   1169               620771   219453   32959

     Using Slab Decomposition



     bravais-lattice index     =            0
     lattice parameter (alat)  =      14.2161  a.u.
     unit-cell volume          =    3495.8798 (a.u.)^3
     number of atoms/cell      =           32
     number of atomic types    =            3
     number of electrons       =       284.00
     number of Kohn-Sham states=          162
     kinetic-energy cutoff     =      60.0000  Ry
     charge density cutoff     =     480.0000  Ry
     scf convergence threshold =      1.0E-08
     mixing beta               =       0.4000
     number of iterations used =            8  plain     mixing
     Exchange-correlation= SLA PW PBX PBC
                           (   1   4   3   4   0   0   0)

     celldm(1)=  14.216102  celldm(2)=   0.000000  celldm(3)=   0.000000
     celldm(4)=   0.000000  celldm(5)=   0.000000  celldm(6)=   0.000000

     crystal axes: (cart. coord. in units of alat)
               a(1) = (   1.000000   0.000000   0.000000 )  
               a(2) = (  -0.466067   1.074013   0.000000 )  
               a(3) = (  -0.136393  -0.333338   1.132936 )  

     reciprocal axes: (cart. coord. in units 2 pi/alat)
               b(1) = (  1.000000  0.433949  0.248067 )  
               b(2) = ( -0.000000  0.931088  0.273949 )  
               b(3) = (  0.000000 -0.000000  0.882662 )  


     PseudoPot. # 1 for Ba read from file:
     /mnt/d/DeepESense/pseudo/SSSP_1.3.0_PBE_efficiency/Ba.pbe-spn-kjpaw_psl.1.0.0.UPF
     MD5 check sum: c432291d3e53af55f19d5e8866385beb
     Pseudo is Projector augmented-wave + core cor, Zval = 10.0
     Generated using "atomic" code by A. Dal Corso  v.5.1
     Shape of augmentation charge: PSQ
     Using radial grid of 1251 points,  7 beta functions with: 
                l(1) =   0
                l(2) =   0
                l(3) =   0
                l(4) =   1
                l(5) =   1
                l(6) =   2
                l(7) =   2
     Q(r) pseudized with 0 coefficients 


     PseudoPot. # 2 for F  read from file:
     /mnt/d/DeepESense/pseudo/SSSP_1.3.0_PBE_efficiency/f_pbe_v1.4.uspp.F.UPF
     MD5 check sum: 4c38b6a325caf53ec0e86aed9459de46
     Pseudo is Ultrasoft, Zval =  7.0
     Generated by new atomic code, or converted to UPF format
     Using radial grid of  799 points,  4 beta functions with: 
                l(1) =   0
                l(2) =   0
                l(3) =   1
                l(4) =   1
     Q(r) pseudized with  8 coefficients,  rinner =    0.950   0.950   0.950


     PseudoPot. # 3 for Tb read from file:
     /mnt/d/DeepESense/pseudo/SSSP_1.3.0_PBE_efficiency/Tb.paw.z_19.atompaw.wentzcovitch.v1.2.upf
     MD5 check sum: 9e397ff4c8e7fcf344a3e57e25721bc0
     Pseudo is Projector augmented-wave + core cor, Zval = 19.0
     Generated using ATOMPAW code
     Shape of augmentation charge: BESSEL
     Using radial grid of 1111 points,  8 beta functions with: 
                l(1) =   0
                l(2) =   0
                l(3) =   1
                l(4) =   1
                l(5) =   2
                l(6) =   2
                l(7) =   3
                l(8) =   3
     Q(r) pseudized with 0 coefficients 


     atomic species   valence    mass     pseudopotential
     Ba               10.00   137.32700     Ba( 1.00)
     F                 7.00    18.99840     F ( 1.00)
     Tb               19.00   158.92540     Tb( 1.00)

      2 Sym. Ops., with inversion, found



   Cartesian axes

     site n.     atom                  positions (alat units)
         1        Ba     tau(   1) = (  -0.1429153   0.6416010   0.6148411  )
         2        Ba     tau(   2) = (   0.0468006   0.0834843   0.8694595  )
         3        Ba     tau(   3) = (   0.5404556   0.0990736   0.5180952  )
         4        Ba     tau(   4) = (   0.3507397   0.6571903   0.2634768  )
         5        Tb     tau(   5) = (   0.5407354  -0.0786447   1.0628506  )
         6        Tb     tau(   6) = (   0.0146713   0.1894591   0.3126088  )
         7        Tb     tau(   7) = (  -0.1431950   0.8193193   0.0700857  )
         8        Tb     tau(   8) = (   0.3828690   0.5512155   0.8203274  )
         9        F      tau(   9) = (  -0.4543122   0.8052592   0.7860912  )
        10        F      tau(  10) = (  -0.0261754   0.3421364   1.1281032  )
        11        F      tau(  11) = (   0.8518525  -0.0645846   0.3468450  )
        12        F      tau(  12) = (   0.1989835   0.0028063   0.1600884  )
        13        F      tau(  13) = (   0.1985568   0.7378683   0.9728479  )
        14        F      tau(  14) = (  -0.2995254   0.7224268   0.3050612  )
        15        F      tau(  15) = (   0.5264204   0.4898733   0.5632721  )
        16        F      tau(  16) = (  -0.3152395   0.5087849   0.9019430  )
        17        F      tau(  17) = (   0.1004910   0.4412206   0.7946982  )
        18        F      tau(  18) = (   0.1667019   0.0357540   0.5297180  )
        19        F      tau(  19) = (  -0.0182884   0.2531718   0.0165465  )
        20        F      tau(  20) = (   0.0122597   0.4917330   0.3281210  )
        21        F      tau(  21) = (   0.3852806   0.2489416   0.8048153  )
        22        F      tau(  22) = (   0.4237157   0.3985382   0.0048331  )
        23        F      tau(  23) = (   0.7127798   0.2318896   0.2309932  )
        24        F      tau(  24) = (   0.3736683  -0.1296712   0.8134947  )
        25        F      tau(  25) = (   0.5000000   0.0000000   0.0000000  )
        26        F      tau(  26) = (   0.4158287   0.4875028   1.1163898  )
        27        F      tau(  27) = (   0.6970657   0.0182477   0.8278751  )
        28        F      tau(  28) = (   0.0238720   0.8703458   0.3194416  )
        29        F      tau(  29) = (   0.2970493   0.2994540   0.3382381  )
        30        F      tau(  30) = (  -0.2330336   0.5370064   0.0000000  )
        31        F      tau(  31) = (  -0.1288801   0.2508012   0.5696642  )
        32        F      tau(  32) = (   0.2308385   0.7049205   0.6032183  )

     number of k points=    36  Marzari-Vanderbilt smearing, width (Ry)=  0.0050
                       cart. coord. in units 2pi/alat
        k(    1) = (   0.0000000   0.0000000   0.0000000), wk =   0.0312500
        k(    2) = (   0.0000000   0.0000000   0.2206655), wk =   0.0625000
        k(    3) = (   0.0000000   0.0000000  -0.4413311), wk =   0.0312500
        k(    4) = (   0.0000000   0.2327719   0.0684873), wk =   0.0625000
        k(    5) = (   0.0000000   0.2327719   0.2891529), wk =   0.0625000
        k(    6) = (   0.0000000   0.2327719  -0.3728438), wk =   0.0625000
        k(    7) = (   0.0000000   0.2327719  -0.1521782), wk =   0.0625000
        k(    8) = (   0.0000000  -0.4655438  -0.1369746), wk =   0.0312500
        k(    9) = (   0.0000000  -0.4655438   0.0836909), wk =   0.0625000
        k(   10) = (   0.0000000  -0.4655438  -0.5783057), wk =   0.0312500
        k(   11) = (   0.2500000   0.1084873   0.0620168), wk =   0.0625000
        k(   12) = (   0.2500000   0.1084873   0.2826824), wk =   0.0625000
        k(   13) = (   0.2500000   0.1084873  -0.3793143), wk =   0.0625000
        k(   14) = (   0.2500000   0.1084873  -0.1586487), wk =   0.0625000
        k(   15) = (   0.2500000   0.3412592   0.1305041), wk =   0.0625000
        k(   16) = (   0.2500000   0.3412592   0.3511697), wk =   0.0625000
        k(   17) = (   0.2500000   0.3412592  -0.3108269), wk =   0.0625000
        k(   18) = (   0.2500000   0.3412592  -0.0901614), wk =   0.0625000
        k(   19) = (   0.2500000  -0.3570565  -0.0749578), wk =   0.0625000
        k(   20) = (   0.2500000  -0.3570565   0.1457077), wk =   0.0625000
        k(   21) = (   0.2500000  -0.3570565  -0.5162889), wk =   0.0625000
        k(   22) = (   0.2500000  -0.3570565  -0.2956234), wk =   0.0625000
        k(   23) = (   0.2500000  -0.1242846  -0.0064705), wk =   0.0625000
        k(   24) = (   0.2500000  -0.1242846   0.2141950), wk =   0.0625000
        k(   25) = (   0.2500000  -0.1242846  -0.4478016), wk =   0.0625000
        k(   26) = (   0.2500000  -0.1242846  -0.2271360), wk =   0.0625000
        k(   27) = (  -0.5000000  -0.2169747  -0.1240337), wk =   0.0312500
        k(   28) = (  -0.5000000  -0.2169747   0.0966319), wk =   0.0625000
        k(   29) = (  -0.5000000  -0.2169747  -0.5653647), wk =   0.0312500
        k(   30) = (  -0.5000000   0.0157972  -0.0555463), wk =   0.0625000
        k(   31) = (  -0.5000000   0.0157972   0.1651192), wk =   0.0625000
        k(   32) = (  -0.5000000   0.0157972  -0.4968774), wk =   0.0625000
        k(   33) = (  -0.5000000   0.0157972  -0.2762119), wk =   0.0625000
        k(   34) = (  -0.5000000  -0.6825185  -0.2610083), wk =   0.0312500
        k(   35) = (  -0.5000000  -0.6825185  -0.0403428), wk =   0.0625000
        k(   36) = (  -0.5000000  -0.6825185  -0.7023394), wk =   0.0312500

     Dense  grid:   620771 G-vectors     FFT dimensions: ( 100, 120, 120)

     Smooth grid:   219453 G-vectors     FFT dimensions: (  72,  90,  90)

     Estimated max dynamical RAM per process >       1.11 GB

     Estimated total dynamical RAM >       8.88 GB

     Initial potential from superposition of free atoms

     starting charge     283.9143, renormalised to     284.0000
