
     Program PWSCF v.7.5 starts on 17Apr2026 at  0:32:46 

     This program is part of the open-source Quantum ESPRESSO suite
     for quantum simulation of materials; please cite
         "P. Giannozzi et al., J. Phys.:Condens. Matter 21 395502 (2009);
         "P. Giannozzi et al., J. Phys.:Condens. Matter 29 465901 (2017);
         "P. Giannozzi et al., J. Chem. Phys. 152 154105 (2020);
          URL http://www.quantum-espresso.org", 
     in publications or presentations arising from this work. More details at
     http://www.quantum-espresso.org/quote

     Parallel version (MPI & OpenMP), running on      16 processor cores
     Number of MPI processes:                 8
     Threads/MPI process:                     2

     MPI processes distributed on     1 nodes
     6624 MiB available memory on the printing compute node when the environment starts

     Reading input from nscf.in
Warning: card &IONS ignored
Warning: card &CELL ignored

     Current dimensions of program PWSCF are:
     Max number of different atomic species (ntypx) = 10
     Max number of k-points (npk) =  40000
     Max angular momentum in pseudopotentials (lmaxx) =  4
     file O.pbe-n-kjpaw_psl.0.1.UPF: wavefunction(s)  2P renormalized

     Atomic positions and unit cell read from directory:
     ./pwscf.save/

     Message from routine setup:
     using ibrav=0 with symmetry is DISCOURAGED, use correct ibrav instead

     R & G space division:  proc/nbgrp/npool/nimage =       8
     Subspace diagonalization in iterative solution of the eigenvalue problem:
     a serial algorithm will be used


     Parallelization info
     --------------------
     sticks:   dense  smooth     PW     G-vecs:    dense   smooth      PW
     Min         746     374    104                50779    17966    2595
     Max         747     375    105                50780    17968    2597
     Sum        5975    2999    833               406233   143741   20767

     Using Slab Decomposition



     bravais-lattice index     =            0
     lattice parameter (alat)  =      11.1298  a.u.
     unit-cell volume          =    2287.9238 (a.u.)^3
     number of atoms/cell      =           24
     number of atomic types    =            3
     number of electrons       =       144.00
     number of Kohn-Sham states=          131
     kinetic-energy cutoff     =      60.0000  Ry
     charge density cutoff     =     480.0000  Ry
     Exchange-correlation= SLA  PW   PBX  PBC
                           (   1   4   3   4   0   0   0)

     celldm(1)=  11.129807  celldm(2)=   0.000000  celldm(3)=   0.000000
     celldm(4)=   0.000000  celldm(5)=   0.000000  celldm(6)=   0.000000

     crystal axes: (cart. coord. in units of alat)
               a(1) = (   0.000000   1.000000   0.000000 )  
               a(2) = (   1.263274   0.000000   0.000000 )  
               a(3) = (   0.000000  -0.176644  -1.313654 )  

     reciprocal axes: (cart. coord. in units 2 pi/alat)
               b(1) = (  0.000000  1.000000 -0.134468 )  
               b(2) = (  0.791594 -0.000000  0.000000 )  
               b(3) = (  0.000000  0.000000 -0.761235 )  


     PseudoPot. # 1 for B  read from file:
     /mnt/d/DeepESense/pseudo/SSSP_1.3.0_PBE_efficiency/b_pbe_v1.4.uspp.F.UPF
     MD5 check sum: cc6de2960df11db49a60e589f9ebb39b
     Pseudo is Ultrasoft + core correction, Zval =  3.0
     Generated by new atomic code, or converted to UPF format
     Using radial grid of  781 points,  4 beta functions with: 
                l(1) =   0
                l(2) =   0
                l(3) =   1
                l(4) =   1
     Q(r) pseudized with  8 coefficients,  rinner =    1.100   1.100   1.100


     PseudoPot. # 2 for F  read from file:
     /mnt/d/DeepESense/pseudo/SSSP_1.3.0_PBE_efficiency/f_pbe_v1.4.uspp.F.UPF
     MD5 check sum: 4c38b6a325caf53ec0e86aed9459de46
     Pseudo is Ultrasoft, Zval =  7.0
     Generated by new atomic code, or converted to UPF format
     Using radial grid of  799 points,  4 beta functions with: 
                l(1) =   0
                l(2) =   0
                l(3) =   1
                l(4) =   1
     Q(r) pseudized with  8 coefficients,  rinner =    0.950   0.950   0.950


     PseudoPot. # 3 for O  read from file:
     /mnt/d/DeepESense/pseudo/SSSP_1.3.0_PBE_efficiency/O.pbe-n-kjpaw_psl.0.1.UPF
     MD5 check sum: 0234752ac141de4415c5fc33072bef88
     Pseudo is Projector augmented-wave + core cor, Zval =  6.0
     Generated using "atomic" code by A. Dal Corso  v.5.0.99 svn rev. 10869
     Shape of augmentation charge: BESSEL
     Using radial grid of 1095 points,  4 beta functions with: 
                l(1) =   0
                l(2) =   0
                l(3) =   1
                l(4) =   1
     Q(r) pseudized with 0 coefficients 


     atomic species   valence    mass     pseudopotential
     B                 3.00    10.81100     B ( 1.00)
     F                 7.00    18.99840     F ( 1.00)
     O                 6.00    15.99940     O ( 1.00)

      4 Sym. Ops., with inversion, found ( 2 have fractional translation)


                                    s                        frac. trans.

      isym =  1     identity                                     

 cryst.   s( 1) = (     1          0          0      )
                  (     0          1          0      )
                  (     0          0          1      )

 cart.    s( 1) = (  1.0000000  0.0000000  0.0000000 )
                  (  0.0000000  1.0000000  0.0000000 )
                  (  0.0000000  0.0000000  1.0000000 )


      isym =  2     180 deg rotation - cart. axis [1,0,0]        

 cryst.   s( 2) = (    -1          0          0      )    f =( -0.0000000 )
                  (     0          1          0      )       (  0.5000000 )
                  (     0          0         -1      )       ( -0.5000000 )

 cart.    s( 2) = (  1.0000000  0.0000000  0.0000000 )    f =(  0.6316371 )
                  (  0.0000000 -1.0000000  0.0000000 )       (  0.0883220 )
                  (  0.0000000  0.0000000 -1.0000000 )       (  0.6568272 )


      isym =  3     inversion                                    

 cryst.   s( 3) = (    -1          0          0      )
                  (     0         -1          0      )
                  (     0          0         -1      )

 cart.    s( 3) = ( -1.0000000  0.0000000  0.0000000 )
                  (  0.0000000 -1.0000000  0.0000000 )
                  (  0.0000000  0.0000000 -1.0000000 )


      isym =  4     inv. 180 deg rotation - cart. axis [1,0,0]   

 cryst.   s( 4) = (     1          0          0      )    f =(  0.0000000 )
                  (     0         -1          0      )       (  0.5000000 )
                  (     0          0          1      )       (  0.5000000 )

 cart.    s( 4) = ( -1.0000000  0.0000000  0.0000000 )    f =(  0.6316371 )
                  (  0.0000000  1.0000000  0.0000000 )       ( -0.0883220 )
                  (  0.0000000  0.0000000  1.0000000 )       ( -0.6568272 )


   Cartesian axes

     site n.     atom                  positions (alat units)
         1        B      tau(   1) = (   0.8221995   0.2949005  -0.1173776  )
         2        B      tau(   2) = (   0.1905624   0.6167775  -0.5394495  )
         3        B      tau(   3) = (   0.4410747   0.5284554  -1.1962767  )
         4        B      tau(   4) = (   1.0727118   0.2065785  -0.7742048  )
         5        O      tau(   5) = (   1.0321960   0.9042730  -0.0155129  )
         6        O      tau(   6) = (   0.4005590   0.0074050  -0.6413142  )
         7        O      tau(   7) = (   0.2310781  -0.0809171  -1.2981414  )
         8        O      tau(   8) = (   0.8627152   0.8159510  -0.6723401  )
         9        O      tau(   9) = (   1.0380185   0.6402780  -1.1413002  )
        10        O      tau(  10) = (   0.4063814   0.0947559  -0.8291812  )
        11        O      tau(  11) = (   0.2252557   0.1830779  -0.1723541  )
        12        O      tau(  12) = (   0.8568928   0.7286000  -0.4844731  )
        13        F      tau(  13) = (   0.7376296   0.1958358  -0.2991440  )
        14        F      tau(  14) = (   0.1059925   0.7158422  -0.3576831  )
        15        F      tau(  15) = (   0.5256446   0.6275201  -1.0145103  )
        16        F      tau(  16) = (   1.1572817   0.1075138  -0.9559712  )
        17        F      tau(  17) = (   0.7084467   0.1102405  -1.2369553  )
        18        F      tau(  18) = (   0.0768096   0.6247934  -0.7335262  )
        19        F      tau(  19) = (   0.5548275   0.7131155  -0.0766990  )
        20        F      tau(  20) = (   1.1864646   0.1985625  -0.5801281  )
        21        F      tau(  21) = (   1.0162775   0.4050323  -0.1280064  )
        22        F      tau(  22) = (   0.3846405   0.5066457  -0.5288207  )
        23        F      tau(  23) = (   0.2469966   0.4183237  -1.1856479  )
        24        F      tau(  24) = (   0.8786337   0.3167102  -0.7848336  )

   Crystallographic axes

     site n.     atom                  positions (cryst. coord.)
         1        B      tau(   1) = (  0.3106840  0.6508480  0.0893520  )
         2        B      tau(   2) = (  0.6893160  0.1508480  0.4106480  )
         3        B      tau(   3) = (  0.6893160  0.3491520  0.9106480  )
         4        B      tau(   4) = (  0.3106840  0.8491520  0.5893520  )
         5        O      tau(   5) = (  0.9063590  0.8170800  0.0118090  )
         6        O      tau(   6) = (  0.0936410  0.3170800  0.4881910  )
         7        O      tau(   7) = (  0.0936410  0.1829200  0.9881910  )
         8        O      tau(   8) = (  0.9063590  0.6829200  0.5118090  )
         9        O      tau(   9) = (  0.7937460  0.8216890  0.8687980  )
        10        O      tau(  10) = (  0.2062540  0.3216890  0.6312020  )
        11        O      tau(  11) = (  0.2062540  0.1783110  0.1312020  )
        12        O      tau(  12) = (  0.7937460  0.6783110  0.3687980  )
        13        F      tau(  13) = (  0.2360610  0.5839030  0.2277190  )
        14        F      tau(  14) = (  0.7639390  0.0839030  0.2722810  )
        15        F      tau(  15) = (  0.7639390  0.4160970  0.7722810  )
        16        F      tau(  16) = (  0.2360610  0.9160970  0.7277190  )
        17        F      tau(  17) = (  0.2765710  0.5608020  0.9416140  )
        18        F      tau(  18) = (  0.7234290  0.0608020  0.5583860  )
        19        F      tau(  19) = (  0.7234290  0.4391980  0.0583860  )
        20        F      tau(  20) = (  0.2765710  0.9391980  0.4416140  )
        21        F      tau(  21) = (  0.4222450  0.8044790  0.0974430  )
        22        F      tau(  22) = (  0.5777550  0.3044790  0.4025570  )
        23        F      tau(  23) = (  0.5777550  0.1955210  0.9025570  )
        24        F      tau(  24) = (  0.4222450  0.6955210  0.5974430  )

     number of k points=   128  Marzari-Vanderbilt smearing, width (Ry)=  0.0050
                       cart. coord. in units 2pi/alat
        k(    1) = (   0.0000000   0.0000000   0.0000000), wk =   0.0045351
        k(    2) = (   0.0000000   0.0000000  -0.1087479), wk =   0.0090703
        k(    3) = (   0.0000000   0.0000000  -0.2174958), wk =   0.0090703
        k(    4) = (   0.0000000   0.0000000  -0.3262437), wk =   0.0090703
        k(    5) = (   0.1130848   0.0000000   0.0000000), wk =   0.0090703
        k(    6) = (   0.1130848   0.0000000  -0.1087479), wk =   0.0181406
        k(    7) = (   0.1130848   0.0000000  -0.2174958), wk =   0.0181406
        k(    8) = (   0.1130848   0.0000000  -0.3262437), wk =   0.0181406
        k(    9) = (   0.2261697   0.0000000   0.0000000), wk =   0.0090703
        k(   10) = (   0.2261697   0.0000000  -0.1087479), wk =   0.0181406
        k(   11) = (   0.2261697   0.0000000  -0.2174958), wk =   0.0181406
        k(   12) = (   0.2261697   0.0000000  -0.3262437), wk =   0.0181406
        k(   13) = (   0.3392545   0.0000000   0.0000000), wk =   0.0090703
        k(   14) = (   0.3392545   0.0000000  -0.1087479), wk =   0.0181406
        k(   15) = (   0.3392545   0.0000000  -0.2174958), wk =   0.0181406
        k(   16) = (   0.3392545   0.0000000  -0.3262437), wk =   0.0181406
        k(   17) = (   0.0000000   0.1111111  -0.0149409), wk =   0.0090703
        k(   18) = (   0.0000000   0.1111111  -0.1236888), wk =   0.0090703
        k(   19) = (   0.0000000   0.1111111  -0.2324366), wk =   0.0090703
        k(   20) = (   0.0000000   0.1111111  -0.3411845), wk =   0.0090703
        k(   21) = (   0.0000000   0.1111111   0.3113028), wk =   0.0090703
        k(   22) = (   0.0000000   0.1111111   0.2025549), wk =   0.0090703
        k(   23) = (   0.0000000   0.1111111   0.0938070), wk =   0.0090703
        k(   24) = (   0.1130848   0.1111111  -0.0149409), wk =   0.0181406
        k(   25) = (   0.1130848   0.1111111  -0.1236888), wk =   0.0181406
        k(   26) = (   0.1130848   0.1111111  -0.2324366), wk =   0.0181406
        k(   27) = (   0.1130848   0.1111111  -0.3411845), wk =   0.0181406
        k(   28) = (   0.1130848   0.1111111   0.3113028), wk =   0.0181406
        k(   29) = (   0.1130848   0.1111111   0.2025549), wk =   0.0181406
        k(   30) = (   0.1130848   0.1111111   0.0938070), wk =   0.0181406
        k(   31) = (   0.2261697   0.1111111  -0.0149409), wk =   0.0181406
        k(   32) = (   0.2261697   0.1111111  -0.1236888), wk =   0.0181406
        k(   33) = (   0.2261697   0.1111111  -0.2324366), wk =   0.0181406
        k(   34) = (   0.2261697   0.1111111  -0.3411845), wk =   0.0181406
        k(   35) = (   0.2261697   0.1111111   0.3113028), wk =   0.0181406
        k(   36) = (   0.2261697   0.1111111   0.2025549), wk =   0.0181406
        k(   37) = (   0.2261697   0.1111111   0.0938070), wk =   0.0181406
        k(   38) = (   0.3392545   0.1111111  -0.0149409), wk =   0.0181406
        k(   39) = (   0.3392545   0.1111111  -0.1236888), wk =   0.0181406
        k(   40) = (   0.3392545   0.1111111  -0.2324366), wk =   0.0181406
        k(   41) = (   0.3392545   0.1111111  -0.3411845), wk =   0.0181406
        k(   42) = (   0.3392545   0.1111111   0.3113028), wk =   0.0181406
        k(   43) = (   0.3392545   0.1111111   0.2025549), wk =   0.0181406
        k(   44) = (   0.3392545   0.1111111   0.0938070), wk =   0.0181406
        k(   45) = (   0.0000000   0.2222222  -0.0298817), wk =   0.0090703
        k(   46) = (   0.0000000   0.2222222  -0.1386296), wk =   0.0090703
        k(   47) = (   0.0000000   0.2222222  -0.2473775), wk =   0.0090703
        k(   48) = (   0.0000000   0.2222222  -0.3561254), wk =   0.0090703
        k(   49) = (   0.0000000   0.2222222   0.2963620), wk =   0.0090703
        k(   50) = (   0.0000000   0.2222222   0.1876141), wk =   0.0090703
        k(   51) = (   0.0000000   0.2222222   0.0788662), wk =   0.0090703
        k(   52) = (   0.1130848   0.2222222  -0.0298817), wk =   0.0181406
        k(   53) = (   0.1130848   0.2222222  -0.1386296), wk =   0.0181406
        k(   54) = (   0.1130848   0.2222222  -0.2473775), wk =   0.0181406
        k(   55) = (   0.1130848   0.2222222  -0.3561254), wk =   0.0181406
        k(   56) = (   0.1130848   0.2222222   0.2963620), wk =   0.0181406
        k(   57) = (   0.1130848   0.2222222   0.1876141), wk =   0.0181406
        k(   58) = (   0.1130848   0.2222222   0.0788662), wk =   0.0181406
        k(   59) = (   0.2261697   0.2222222  -0.0298817), wk =   0.0181406
        k(   60) = (   0.2261697   0.2222222  -0.1386296), wk =   0.0181406
        k(   61) = (   0.2261697   0.2222222  -0.2473775), wk =   0.0181406
        k(   62) = (   0.2261697   0.2222222  -0.3561254), wk =   0.0181406
        k(   63) = (   0.2261697   0.2222222   0.2963620), wk =   0.0181406
        k(   64) = (   0.2261697   0.2222222   0.1876141), wk =   0.0181406
        k(   65) = (   0.2261697   0.2222222   0.0788662), wk =   0.0181406
        k(   66) = (   0.3392545   0.2222222  -0.0298817), wk =   0.0181406
        k(   67) = (   0.3392545   0.2222222  -0.1386296), wk =   0.0181406
        k(   68) = (   0.3392545   0.2222222  -0.2473775), wk =   0.0181406
        k(   69) = (   0.3392545   0.2222222  -0.3561254), wk =   0.0181406
        k(   70) = (   0.3392545   0.2222222   0.2963620), wk =   0.0181406
        k(   71) = (   0.3392545   0.2222222   0.1876141), wk =   0.0181406
        k(   72) = (   0.3392545   0.2222222   0.0788662), wk =   0.0181406
        k(   73) = (   0.0000000   0.3333333  -0.0448226), wk =   0.0090703
        k(   74) = (   0.0000000   0.3333333  -0.1535705), wk =   0.0090703
        k(   75) = (   0.0000000   0.3333333  -0.2623184), wk =   0.0090703
        k(   76) = (   0.0000000   0.3333333  -0.3710663), wk =   0.0090703
        k(   77) = (   0.0000000   0.3333333   0.2814211), wk =   0.0090703
        k(   78) = (   0.0000000   0.3333333   0.1726732), wk =   0.0090703
        k(   79) = (   0.0000000   0.3333333   0.0639253), wk =   0.0090703
        k(   80) = (   0.1130848   0.3333333  -0.0448226), wk =   0.0181406
        k(   81) = (   0.1130848   0.3333333  -0.1535705), wk =   0.0181406
        k(   82) = (   0.1130848   0.3333333  -0.2623184), wk =   0.0181406
        k(   83) = (   0.1130848   0.3333333  -0.3710663), wk =   0.0181406
        k(   84) = (   0.1130848   0.3333333   0.2814211), wk =   0.0181406
        k(   85) = (   0.1130848   0.3333333   0.1726732), wk =   0.0181406
        k(   86) = (   0.1130848   0.3333333   0.0639253), wk =   0.0181406
        k(   87) = (   0.2261697   0.3333333  -0.0448226), wk =   0.0181406
        k(   88) = (   0.2261697   0.3333333  -0.1535705), wk =   0.0181406
        k(   89) = (   0.2261697   0.3333333  -0.2623184), wk =   0.0181406
        k(   90) = (   0.2261697   0.3333333  -0.3710663), wk =   0.0181406
        k(   91) = (   0.2261697   0.3333333   0.2814211), wk =   0.0181406
        k(   92) = (   0.2261697   0.3333333   0.1726732), wk =   0.0181406
        k(   93) = (   0.2261697   0.3333333   0.0639253), wk =   0.0181406
        k(   94) = (   0.3392545   0.3333333  -0.0448226), wk =   0.0181406
        k(   95) = (   0.3392545   0.3333333  -0.1535705), wk =   0.0181406
        k(   96) = (   0.3392545   0.3333333  -0.2623184), wk =   0.0181406
        k(   97) = (   0.3392545   0.3333333  -0.3710663), wk =   0.0181406
        k(   98) = (   0.3392545   0.3333333   0.2814211), wk =   0.0181406
        k(   99) = (   0.3392545   0.3333333   0.1726732), wk =   0.0181406
        k(  100) = (   0.3392545   0.3333333   0.0639253), wk =   0.0181406
        k(  101) = (   0.0000000   0.4444444  -0.0597634), wk =   0.0090703
        k(  102) = (   0.0000000   0.4444444  -0.1685113), wk =   0.0090703
        k(  103) = (   0.0000000   0.4444444  -0.2772592), wk =   0.0090703
        k(  104) = (   0.0000000   0.4444444  -0.3860071), wk =   0.0090703
        k(  105) = (   0.0000000   0.4444444   0.2664803), wk =   0.0090703
        k(  106) = (   0.0000000   0.4444444   0.1577324), wk =   0.0090703
        k(  107) = (   0.0000000   0.4444444   0.0489845), wk =   0.0090703
        k(  108) = (   0.1130848   0.4444444  -0.0597634), wk =   0.0181406
        k(  109) = (   0.1130848   0.4444444  -0.1685113), wk =   0.0181406
        k(  110) = (   0.1130848   0.4444444  -0.2772592), wk =   0.0181406
        k(  111) = (   0.1130848   0.4444444  -0.3860071), wk =   0.0181406
        k(  112) = (   0.1130848   0.4444444   0.2664803), wk =   0.0181406
        k(  113) = (   0.1130848   0.4444444   0.1577324), wk =   0.0181406
        k(  114) = (   0.1130848   0.4444444   0.0489845), wk =   0.0181406
        k(  115) = (   0.2261697   0.4444444  -0.0597634), wk =   0.0181406
        k(  116) = (   0.2261697   0.4444444  -0.1685113), wk =   0.0181406
        k(  117) = (   0.2261697   0.4444444  -0.2772592), wk =   0.0181406
        k(  118) = (   0.2261697   0.4444444  -0.3860071), wk =   0.0181406
        k(  119) = (   0.2261697   0.4444444   0.2664803), wk =   0.0181406
        k(  120) = (   0.2261697   0.4444444   0.1577324), wk =   0.0181406
        k(  121) = (   0.2261697   0.4444444   0.0489845), wk =   0.0181406
        k(  122) = (   0.3392545   0.4444444  -0.0597634), wk =   0.0181406
        k(  123) = (   0.3392545   0.4444444  -0.1685113), wk =   0.0181406
        k(  124) = (   0.3392545   0.4444444  -0.2772592), wk =   0.0181406
        k(  125) = (   0.3392545   0.4444444  -0.3860071), wk =   0.0181406
        k(  126) = (   0.3392545   0.4444444   0.2664803), wk =   0.0181406
        k(  127) = (   0.3392545   0.4444444   0.1577324), wk =   0.0181406
        k(  128) = (   0.3392545   0.4444444   0.0489845), wk =   0.0181406

                       cryst. coord.
        k(    1) = (   0.0000000   0.0000000   0.0000000), wk =   0.0045351
        k(    2) = (   0.0000000   0.0000000   0.1428571), wk =   0.0090703
        k(    3) = (   0.0000000   0.0000000   0.2857143), wk =   0.0090703
        k(    4) = (   0.0000000   0.0000000   0.4285714), wk =   0.0090703
        k(    5) = (   0.0000000   0.1428571   0.0000000), wk =   0.0090703
        k(    6) = (   0.0000000   0.1428571   0.1428571), wk =   0.0181406
        k(    7) = (   0.0000000   0.1428571   0.2857143), wk =   0.0181406
        k(    8) = (   0.0000000   0.1428571   0.4285714), wk =   0.0181406
        k(    9) = (   0.0000000   0.2857143   0.0000000), wk =   0.0090703
        k(   10) = (   0.0000000   0.2857143   0.1428571), wk =   0.0181406
        k(   11) = (   0.0000000   0.2857143   0.2857143), wk =   0.0181406
        k(   12) = (   0.0000000   0.2857143   0.4285714), wk =   0.0181406
        k(   13) = (   0.0000000   0.4285714   0.0000000), wk =   0.0090703
        k(   14) = (   0.0000000   0.4285714   0.1428571), wk =   0.0181406
        k(   15) = (   0.0000000   0.4285714   0.2857143), wk =   0.0181406
        k(   16) = (   0.0000000   0.4285714   0.4285714), wk =   0.0181406
        k(   17) = (   0.1111111   0.0000000   0.0000000), wk =   0.0090703
        k(   18) = (   0.1111111   0.0000000   0.1428571), wk =   0.0090703
        k(   19) = (   0.1111111   0.0000000   0.2857143), wk =   0.0090703
        k(   20) = (   0.1111111   0.0000000   0.4285714), wk =   0.0090703
        k(   21) = (   0.1111111   0.0000000  -0.4285714), wk =   0.0090703
        k(   22) = (   0.1111111   0.0000000  -0.2857143), wk =   0.0090703
        k(   23) = (   0.1111111   0.0000000  -0.1428571), wk =   0.0090703
        k(   24) = (   0.1111111   0.1428571   0.0000000), wk =   0.0181406
        k(   25) = (   0.1111111   0.1428571   0.1428571), wk =   0.0181406
        k(   26) = (   0.1111111   0.1428571   0.2857143), wk =   0.0181406
        k(   27) = (   0.1111111   0.1428571   0.4285714), wk =   0.0181406
        k(   28) = (   0.1111111   0.1428571  -0.4285714), wk =   0.0181406
        k(   29) = (   0.1111111   0.1428571  -0.2857143), wk =   0.0181406
        k(   30) = (   0.1111111   0.1428571  -0.1428571), wk =   0.0181406
        k(   31) = (   0.1111111   0.2857143   0.0000000), wk =   0.0181406
        k(   32) = (   0.1111111   0.2857143   0.1428571), wk =   0.0181406
        k(   33) = (   0.1111111   0.2857143   0.2857143), wk =   0.0181406
        k(   34) = (   0.1111111   0.2857143   0.4285714), wk =   0.0181406
        k(   35) = (   0.1111111   0.2857143  -0.4285714), wk =   0.0181406
        k(   36) = (   0.1111111   0.2857143  -0.2857143), wk =   0.0181406
        k(   37) = (   0.1111111   0.2857143  -0.1428571), wk =   0.0181406
        k(   38) = (   0.1111111   0.4285714   0.0000000), wk =   0.0181406
        k(   39) = (   0.1111111   0.4285714   0.1428571), wk =   0.0181406
        k(   40) = (   0.1111111   0.4285714   0.2857143), wk =   0.0181406
        k(   41) = (   0.1111111   0.4285714   0.4285714), wk =   0.0181406
        k(   42) = (   0.1111111   0.4285714  -0.4285714), wk =   0.0181406
        k(   43) = (   0.1111111   0.4285714  -0.2857143), wk =   0.0181406
        k(   44) = (   0.1111111   0.4285714  -0.1428571), wk =   0.0181406
        k(   45) = (   0.2222222   0.0000000   0.0000000), wk =   0.0090703
        k(   46) = (   0.2222222   0.0000000   0.1428571), wk =   0.0090703
        k(   47) = (   0.2222222   0.0000000   0.2857143), wk =   0.0090703
        k(   48) = (   0.2222222   0.0000000   0.4285714), wk =   0.0090703
        k(   49) = (   0.2222222   0.0000000  -0.4285714), wk =   0.0090703
        k(   50) = (   0.2222222   0.0000000  -0.2857143), wk =   0.0090703
        k(   51) = (   0.2222222   0.0000000  -0.1428571), wk =   0.0090703
        k(   52) = (   0.2222222   0.1428571   0.0000000), wk =   0.0181406
        k(   53) = (   0.2222222   0.1428571   0.1428571), wk =   0.0181406
        k(   54) = (   0.2222222   0.1428571   0.2857143), wk =   0.0181406
        k(   55) = (   0.2222222   0.1428571   0.4285714), wk =   0.0181406
        k(   56) = (   0.2222222   0.1428571  -0.4285714), wk =   0.0181406
        k(   57) = (   0.2222222   0.1428571  -0.2857143), wk =   0.0181406
        k(   58) = (   0.2222222   0.1428571  -0.1428571), wk =   0.0181406
        k(   59) = (   0.2222222   0.2857143   0.0000000), wk =   0.0181406
        k(   60) = (   0.2222222   0.2857143   0.1428571), wk =   0.0181406
        k(   61) = (   0.2222222   0.2857143   0.2857143), wk =   0.0181406
        k(   62) = (   0.2222222   0.2857143   0.4285714), wk =   0.0181406
        k(   63) = (   0.2222222   0.2857143  -0.4285714), wk =   0.0181406
        k(   64) = (   0.2222222   0.2857143  -0.2857143), wk =   0.0181406
        k(   65) = (   0.2222222   0.2857143  -0.1428571), wk =   0.0181406
        k(   66) = (   0.2222222   0.4285714   0.0000000), wk =   0.0181406
        k(   67) = (   0.2222222   0.4285714   0.1428571), wk =   0.0181406
        k(   68) = (   0.2222222   0.4285714   0.2857143), wk =   0.0181406
        k(   69) = (   0.2222222   0.4285714   0.4285714), wk =   0.0181406
        k(   70) = (   0.2222222   0.4285714  -0.4285714), wk =   0.0181406
        k(   71) = (   0.2222222   0.4285714  -0.2857143), wk =   0.0181406
        k(   72) = (   0.2222222   0.4285714  -0.1428571), wk =   0.0181406
        k(   73) = (   0.3333333   0.0000000   0.0000000), wk =   0.0090703
        k(   74) = (   0.3333333   0.0000000   0.1428571), wk =   0.0090703
        k(   75) = (   0.3333333   0.0000000   0.2857143), wk =   0.0090703
        k(   76) = (   0.3333333   0.0000000   0.4285714), wk =   0.0090703
        k(   77) = (   0.3333333   0.0000000  -0.4285714), wk =   0.0090703
        k(   78) = (   0.3333333   0.0000000  -0.2857143), wk =   0.0090703
        k(   79) = (   0.3333333   0.0000000  -0.1428571), wk =   0.0090703
        k(   80) = (   0.3333333   0.1428571   0.0000000), wk =   0.0181406
        k(   81) = (   0.3333333   0.1428571   0.1428571), wk =   0.0181406
        k(   82) = (   0.3333333   0.1428571   0.2857143), wk =   0.0181406
        k(   83) = (   0.3333333   0.1428571   0.4285714), wk =   0.0181406
        k(   84) = (   0.3333333   0.1428571  -0.4285714), wk =   0.0181406
        k(   85) = (   0.3333333   0.1428571  -0.2857143), wk =   0.0181406
        k(   86) = (   0.3333333   0.1428571  -0.1428571), wk =   0.0181406
        k(   87) = (   0.3333333   0.2857143   0.0000000), wk =   0.0181406
        k(   88) = (   0.3333333   0.2857143   0.1428571), wk =   0.0181406
        k(   89) = (   0.3333333   0.2857143   0.2857143), wk =   0.0181406
        k(   90) = (   0.3333333   0.2857143   0.4285714), wk =   0.0181406
        k(   91) = (   0.3333333   0.2857143  -0.4285714), wk =   0.0181406
        k(   92) = (   0.3333333   0.2857143  -0.2857143), wk =   0.0181406
        k(   93) = (   0.3333333   0.2857143  -0.1428571), wk =   0.0181406
        k(   94) = (   0.3333333   0.4285714   0.0000000), wk =   0.0181406
        k(   95) = (   0.3333333   0.4285714   0.1428571), wk =   0.0181406
        k(   96) = (   0.3333333   0.4285714   0.2857143), wk =   0.0181406
        k(   97) = (   0.3333333   0.4285714   0.4285714), wk =   0.0181406
        k(   98) = (   0.3333333   0.4285714  -0.4285714), wk =   0.0181406
        k(   99) = (   0.3333333   0.4285714  -0.2857143), wk =   0.0181406
        k(  100) = (   0.3333333   0.4285714  -0.1428571), wk =   0.0181406
        k(  101) = (   0.4444444   0.0000000   0.0000000), wk =   0.0090703
        k(  102) = (   0.4444444   0.0000000   0.1428571), wk =   0.0090703
        k(  103) = (   0.4444444   0.0000000   0.2857143), wk =   0.0090703
        k(  104) = (   0.4444444   0.0000000   0.4285714), wk =   0.0090703
        k(  105) = (   0.4444444   0.0000000  -0.4285714), wk =   0.0090703
        k(  106) = (   0.4444444   0.0000000  -0.2857143), wk =   0.0090703
        k(  107) = (   0.4444444   0.0000000  -0.1428571), wk =   0.0090703
        k(  108) = (   0.4444444   0.1428571   0.0000000), wk =   0.0181406
        k(  109) = (   0.4444444   0.1428571   0.1428571), wk =   0.0181406
        k(  110) = (   0.4444444   0.1428571   0.2857143), wk =   0.0181406
        k(  111) = (   0.4444444   0.1428571   0.4285714), wk =   0.0181406
        k(  112) = (   0.4444444   0.1428571  -0.4285714), wk =   0.0181406
        k(  113) = (   0.4444444   0.1428571  -0.2857143), wk =   0.0181406
        k(  114) = (   0.4444444   0.1428571  -0.1428571), wk =   0.0181406
        k(  115) = (   0.4444444   0.2857143   0.0000000), wk =   0.0181406
        k(  116) = (   0.4444444   0.2857143   0.1428571), wk =   0.0181406
        k(  117) = (   0.4444444   0.2857143   0.2857143), wk =   0.0181406
        k(  118) = (   0.4444444   0.2857143   0.4285714), wk =   0.0181406
        k(  119) = (   0.4444444   0.2857143  -0.4285714), wk =   0.0181406
        k(  120) = (   0.4444444   0.2857143  -0.2857143), wk =   0.0181406
        k(  121) = (   0.4444444   0.2857143  -0.1428571), wk =   0.0181406
        k(  122) = (   0.4444444   0.4285714   0.0000000), wk =   0.0181406
        k(  123) = (   0.4444444   0.4285714   0.1428571), wk =   0.0181406
        k(  124) = (   0.4444444   0.4285714   0.2857143), wk =   0.0181406
        k(  125) = (   0.4444444   0.4285714   0.4285714), wk =   0.0181406
        k(  126) = (   0.4444444   0.4285714  -0.4285714), wk =   0.0181406
        k(  127) = (   0.4444444   0.4285714  -0.2857143), wk =   0.0181406
        k(  128) = (   0.4444444   0.4285714  -0.1428571), wk =   0.0181406

     Dense  grid:   406233 G-vectors     FFT dimensions: (  80, 100, 108)

     Smooth grid:   143741 G-vectors     FFT dimensions: (  60,  72,  80)

     Dynamical RAM for                 wfc:       4.49 MB

     Dynamical RAM for     wfc (w. buffer):     578.63 MB

     Dynamical RAM for           str. fact:       2.32 MB

     Dynamical RAM for           local pot:       0.00 MB

     Dynamical RAM for          nlocal pot:       6.57 MB

     Dynamical RAM for                qrad:       1.51 MB

     Dynamical RAM for          rho,v,vnew:       4.89 MB

     Dynamical RAM for           G-vectors:       3.04 MB

     Dynamical RAM for          h,s,v(r/c):       3.14 MB

     Dynamical RAM for          <psi|beta>:       0.38 MB

     Dynamical RAM for                 psi:       8.97 MB

     Dynamical RAM for                hpsi:       8.97 MB

     Dynamical RAM for                spsi:       8.97 MB

     Dynamical RAM for      wfcinit/wfcrot:       9.36 MB

     Dynamical RAM for           addusdens:      42.62 MB

     Estimated static dynamical RAM per process >     604.34 MB

     Estimated max dynamical RAM per process >     646.96 MB

     Estimated total dynamical RAM >       5.05 GB

     The potential is recalculated from file :
     ./pwscf.save/charge-density

     Starting wfcs are   96 randomized atomic wfcs +   35 random wfcs
     Checking if some PAW data can be deallocated... 
       PAW data deallocated on    5 nodes for type:  3

     Band Structure Calculation
     Davidson diagonalization with overlap

     Computing kpt #:     1  of   128
     total cpu time spent up to now is       36.6 secs

     Computing kpt #:     2  of   128
     total cpu time spent up to now is       79.3 secs

     Computing kpt #:     3  of   128
     total cpu time spent up to now is      113.1 secs

     Computing kpt #:     4  of   128
     total cpu time spent up to now is      147.1 secs

     Computing kpt #:     5  of   128
     total cpu time spent up to now is      206.5 secs

     Computing kpt #:     6  of   128
     total cpu time spent up to now is      240.6 secs

     Computing kpt #:     7  of   128
     total cpu time spent up to now is      276.5 secs

     Computing kpt #:     8  of   128
     total cpu time spent up to now is      326.1 secs

     Computing kpt #:     9  of   128
     total cpu time spent up to now is      369.3 secs

     Computing kpt #:    10  of   128
     total cpu time spent up to now is      403.7 secs

     Computing kpt #:    11  of   128
     total cpu time spent up to now is      437.4 secs

     Computing kpt #:    12  of   128
     total cpu time spent up to now is      471.8 secs

     Computing kpt #:    13  of   128
     total cpu time spent up to now is      506.6 secs

     Computing kpt #:    14  of   128
     total cpu time spent up to now is      545.0 secs

     Computing kpt #:    15  of   128
     total cpu time spent up to now is      585.4 secs

     Computing kpt #:    16  of   128
     total cpu time spent up to now is      628.0 secs

     Computing kpt #:    17  of   128
     total cpu time spent up to now is      669.6 secs

     Computing kpt #:    18  of   128
     total cpu time spent up to now is      708.1 secs

     Computing kpt #:    19  of   128
     total cpu time spent up to now is      744.2 secs

     Computing kpt #:    20  of   128
     total cpu time spent up to now is      781.1 secs

     Computing kpt #:    21  of   128
     total cpu time spent up to now is      816.4 secs

     Computing kpt #:    22  of   128
     total cpu time spent up to now is      853.6 secs

     Computing kpt #:    23  of   128
     total cpu time spent up to now is      889.6 secs

     Computing kpt #:    24  of   128
     total cpu time spent up to now is      913.5 secs

     Computing kpt #:    25  of   128
     total cpu time spent up to now is      948.4 secs

     Computing kpt #:    26  of   128
     total cpu time spent up to now is      973.4 secs

     Computing kpt #:    27  of   128
     total cpu time spent up to now is     1004.1 secs

     Computing kpt #:    28  of   128
     total cpu time spent up to now is     1046.7 secs

     Computing kpt #:    29  of   128
     total cpu time spent up to now is     1084.2 secs

     Computing kpt #:    30  of   128
     total cpu time spent up to now is     1119.2 secs

     Computing kpt #:    31  of   128
     total cpu time spent up to now is     1151.7 secs

     Computing kpt #:    32  of   128
     total cpu time spent up to now is     1185.7 secs

     Computing kpt #:    33  of   128
     total cpu time spent up to now is     1220.2 secs

     Computing kpt #:    34  of   128
     total cpu time spent up to now is     1267.7 secs

     Computing kpt #:    35  of   128
     total cpu time spent up to now is     1325.9 secs

     Computing kpt #:    36  of   128
     total cpu time spent up to now is     1361.1 secs

     Computing kpt #:    37  of   128
     total cpu time spent up to now is     1397.9 secs

     Computing kpt #:    38  of   128
     total cpu time spent up to now is     1436.4 secs

     Computing kpt #:    39  of   128
     total cpu time spent up to now is     1470.8 secs

     Computing kpt #:    40  of   128
     total cpu time spent up to now is     1505.9 secs

     Computing kpt #:    41  of   128
     total cpu time spent up to now is     1548.9 secs

     Computing kpt #:    42  of   128
     total cpu time spent up to now is     1591.9 secs

     Computing kpt #:    43  of   128
     total cpu time spent up to now is     1626.6 secs

     Computing kpt #:    44  of   128
     total cpu time spent up to now is     1658.3 secs

     Computing kpt #:    45  of   128
     total cpu time spent up to now is     1690.2 secs

     Computing kpt #:    46  of   128
     total cpu time spent up to now is     1726.3 secs

     Computing kpt #:    47  of   128
     total cpu time spent up to now is     1765.0 secs

     Computing kpt #:    48  of   128
     total cpu time spent up to now is     1799.8 secs

     Computing kpt #:    49  of   128
     total cpu time spent up to now is     1835.9 secs

     Computing kpt #:    50  of   128
     total cpu time spent up to now is     1870.7 secs

     Computing kpt #:    51  of   128
     total cpu time spent up to now is     1907.9 secs

     Computing kpt #:    52  of   128
     total cpu time spent up to now is     1944.4 secs

     Computing kpt #:    53  of   128
     total cpu time spent up to now is     1978.1 secs

     Computing kpt #:    54  of   128
     total cpu time spent up to now is     2011.1 secs

     Computing kpt #:    55  of   128
     total cpu time spent up to now is     2046.7 secs

     Computing kpt #:    56  of   128
     total cpu time spent up to now is     2086.9 secs

     Computing kpt #:    57  of   128
     total cpu time spent up to now is     2128.2 secs

     Computing kpt #:    58  of   128
     total cpu time spent up to now is     2209.7 secs

     Computing kpt #:    59  of   128
     total cpu time spent up to now is     2286.3 secs

     Computing kpt #:    60  of   128
     total cpu time spent up to now is     2340.3 secs

     Computing kpt #:    61  of   128
     total cpu time spent up to now is     2393.4 secs

     Computing kpt #:    62  of   128
     total cpu time spent up to now is     2451.0 secs

     Computing kpt #:    63  of   128
     total cpu time spent up to now is     2499.3 secs

     Computing kpt #:    64  of   128
     total cpu time spent up to now is     2540.3 secs

     Computing kpt #:    65  of   128
     total cpu time spent up to now is     2587.5 secs

     Computing kpt #:    66  of   128
     total cpu time spent up to now is     2659.9 secs

     Computing kpt #:    67  of   128
     total cpu time spent up to now is     2711.9 secs

     Computing kpt #:    68  of   128
     total cpu time spent up to now is     2752.9 secs

     Computing kpt #:    69  of   128
     total cpu time spent up to now is     2794.5 secs

     Computing kpt #:    70  of   128
     total cpu time spent up to now is     2837.9 secs

     Computing kpt #:    71  of   128
     total cpu time spent up to now is     2880.6 secs

     Computing kpt #:    72  of   128
     total cpu time spent up to now is     2926.4 secs

     Computing kpt #:    73  of   128
     total cpu time spent up to now is     2949.8 secs

     Computing kpt #:    74  of   128
     total cpu time spent up to now is     2963.5 secs

     Computing kpt #:    75  of   128
     total cpu time spent up to now is     2975.7 secs

     Computing kpt #:    76  of   128
     total cpu time spent up to now is     2988.9 secs

     Computing kpt #:    77  of   128
     total cpu time spent up to now is     3002.0 secs

     Computing kpt #:    78  of   128
     total cpu time spent up to now is     3025.8 secs

     Computing kpt #:    79  of   128
     total cpu time spent up to now is     3057.1 secs

     Computing kpt #:    80  of   128
     total cpu time spent up to now is     3093.7 secs

     Computing kpt #:    81  of   128
     total cpu time spent up to now is     3132.5 secs

     Computing kpt #:    82  of   128
     total cpu time spent up to now is     3171.1 secs

     Computing kpt #:    83  of   128
     total cpu time spent up to now is     3208.8 secs

     Computing kpt #:    84  of   128
     total cpu time spent up to now is     3246.2 secs

     Computing kpt #:    85  of   128
     total cpu time spent up to now is     3279.5 secs

     Computing kpt #:    86  of   128
     total cpu time spent up to now is     3313.2 secs

     Computing kpt #:    87  of   128
     total cpu time spent up to now is     3347.5 secs

     Computing kpt #:    88  of   128
     total cpu time spent up to now is     3382.2 secs

     Computing kpt #:    89  of   128
     total cpu time spent up to now is     3415.5 secs

     Computing kpt #:    90  of   128
     total cpu time spent up to now is     3449.0 secs

     Computing kpt #:    91  of   128
     total cpu time spent up to now is     3482.4 secs

     Computing kpt #:    92  of   128
     total cpu time spent up to now is     3515.2 secs

     Computing kpt #:    93  of   128
     total cpu time spent up to now is     3554.3 secs

     Computing kpt #:    94  of   128
     total cpu time spent up to now is     3589.2 secs

     Computing kpt #:    95  of   128
     total cpu time spent up to now is     3629.2 secs

     Computing kpt #:    96  of   128
     total cpu time spent up to now is     3664.5 secs

     Computing kpt #:    97  of   128
     total cpu time spent up to now is     3703.0 secs

     Computing kpt #:    98  of   128
     total cpu time spent up to now is     3738.4 secs

     Computing kpt #:    99  of   128
     total cpu time spent up to now is     3774.1 secs

     Computing kpt #:   100  of   128
     total cpu time spent up to now is     3811.5 secs

     Computing kpt #:   101  of   128
     total cpu time spent up to now is     3851.1 secs

     Computing kpt #:   102  of   128
     total cpu time spent up to now is     3886.3 secs

     Computing kpt #:   103  of   128
     total cpu time spent up to now is     3922.3 secs

     Computing kpt #:   104  of   128
     total cpu time spent up to now is     3957.9 secs

     Computing kpt #:   105  of   128
     total cpu time spent up to now is     3994.6 secs

     Computing kpt #:   106  of   128
     total cpu time spent up to now is     4031.4 secs

     Computing kpt #:   107  of   128
     total cpu time spent up to now is     4065.1 secs

     Computing kpt #:   108  of   128
     total cpu time spent up to now is     4104.2 secs

     Computing kpt #:   109  of   128
     total cpu time spent up to now is     4138.0 secs

     Computing kpt #:   110  of   128
     total cpu time spent up to now is     4176.6 secs

     Computing kpt #:   111  of   128
     total cpu time spent up to now is     4211.3 secs

     Computing kpt #:   112  of   128
     total cpu time spent up to now is     4249.6 secs

     Computing kpt #:   113  of   128
     total cpu time spent up to now is     4288.6 secs

     Computing kpt #:   114  of   128
     total cpu time spent up to now is     4327.7 secs

     Computing kpt #:   115  of   128
     total cpu time spent up to now is     4363.1 secs

     Computing kpt #:   116  of   128
     total cpu time spent up to now is     4396.5 secs

     Computing kpt #:   117  of   128
     total cpu time spent up to now is     4434.3 secs

     Computing kpt #:   118  of   128
     total cpu time spent up to now is     4473.0 secs

     Computing kpt #:   119  of   128
     total cpu time spent up to now is     4509.6 secs

     Computing kpt #:   120  of   128
     total cpu time spent up to now is     4547.8 secs

     Computing kpt #:   121  of   128
     total cpu time spent up to now is     4582.6 secs

     Computing kpt #:   122  of   128
     total cpu time spent up to now is     4615.6 secs

     Computing kpt #:   123  of   128
     total cpu time spent up to now is     4648.9 secs

     Computing kpt #:   124  of   128
     total cpu time spent up to now is     4680.7 secs

     Computing kpt #:   125  of   128
     total cpu time spent up to now is     4715.2 secs

     Computing kpt #:   126  of   128
     total cpu time spent up to now is     4749.3 secs

     Computing kpt #:   127  of   128
     total cpu time spent up to now is     4780.7 secs

     Computing kpt #:   128  of   128
     total cpu time spent up to now is     4813.4 secs

     ethr =  6.94E-12,  avg # of iterations = 35.9

     total cpu time spent up to now is     4813.4 secs

     End of band structure calculation

          k = 0.0000 0.0000 0.0000 ( 17955 PWs)   bands (ev):

   -25.8416 -25.8149 -25.7935 -25.7785 -25.3286 -25.2745 -25.2563 -25.2170
   -24.3304 -24.3093 -24.3051 -24.2908 -24.2648 -24.2630 -24.2565 -24.2357
   -13.5291 -13.5070 -13.3880 -13.3625  -8.1839  -8.1810  -8.1726  -8.0883
    -7.3280  -7.2671  -7.2485  -7.2321  -7.1730  -7.1608  -7.1152  -7.0871
    -6.9848  -6.9412  -6.8147  -6.7594  -6.6244  -6.4605  -6.4142  -6.3685
    -6.3157  -6.2672  -6.0351  -5.9959  -5.9759  -5.8037  -5.6254  -5.5520
    -4.7095  -4.7004  -4.5749  -4.4893  -4.4269  -4.3452  -4.3104  -4.2683
    -4.2082  -4.1716  -4.1501  -4.1337  -4.1051  -4.0913  -4.0748  -4.0526
    -3.3905  -3.3790  -3.2548  -3.2044   0.3851   0.4092   0.4907   0.5036
     0.5583   0.5800   0.6852   0.6976   5.8451   6.3681   6.3931   6.7528
     6.7762   7.4433   7.7236   8.6164   9.3111   9.5556   9.8003   9.9067
    10.1340  10.8202  10.9024  11.1239  11.6344  11.8057  12.0101  12.1588
    12.2526  12.3535  12.3814  12.4708  12.8766  13.0961  13.1813  13.5489
    13.6009  13.7702  13.8940  13.9463  14.1363  14.4251  14.4387  14.9901
    15.0448  15.1768  15.2356  15.3425  15.5084  15.7982  15.9746  16.1479
    16.1875  16.2146  16.2511  16.8314  16.9863  17.1320  17.4795  17.5485
    17.8057  17.9764  18.2254

     occupation numbers 
     1.0000   1.0000   1.0000   1.0000   1.0000   1.0000   1.0000   1.0000
     1.0000   1.0000   1.0000   1.0000   1.0000   1.0000   1.0000   1.0000
     1.0000   1.0000   1.0000   1.0000   1.0000   1.0000   1.0000   1.0000
     1.0000   1.0000   1.0000   1.0000   1.0000   1.0000   1.0000   1.0000
     1.0000   1.0000   1.0000   1.0000   1.0000   1.0000   1.0000   1.0000
     1.0000   1.0000   1.0000   1.0000   1.0000   1.0000   1.0000   1.0000
     1.0000   1.0000   1.0000   1.0000   1.0000   1.0000   1.0000   1.0000
     1.0000   1.0000   1.0000   1.0000   1.0000   1.0000   1.0000   1.0000
     1.0000   1.0000   1.0000   1.0000   1.0324   1.0641   0.8041   0.6691
     0.1598   0.0657   0.0001   0.0000   0.0000   0.0000   0.0000   0.0000
     0.0000   0.0000   0.0000   0.0000   0.0000   0.0000   0.0000   0.0000
     0.0000   0.0000   0.0000   0.0000   0.0000   0.0000   0.0000   0.0000
     0.0000   0.0000   0.0000   0.0000   0.0000   0.0000   0.0000   0.0000
     0.0000   0.0000   0.0000   0.0000   0.0000   0.0000   0.0000   0.0000
     0.0000   0.0000   0.0000   0.0000   0.0000   0.0000   0.0000   0.0000
     0.0000   0.0000   0.0000   0.0000   0.0000   0.0000   0.0000   0.0000
     0.0000   0.0000   0.0000

          k = 0.0000 0.0000-0.1087 ( 17961 PWs)   bands (ev):

   -25.8402 -25.8162 -25.7928 -25.7793 -25.3263 -25.2776 -25.2542 -25.2187
   -24.3301 -24.3110 -24.3033 -24.2880 -24.2664 -24.2615 -24.2581 -24.2366
   -13.5223 -13.5001 -13.3952 -13.3698  -8.1923  -8.1838  -8.1550  -8.0843
    -7.3518  -7.2814  -7.2266  -7.2265  -7.1916  -7.1560  -7.1387  -7.0744
    -6.9824  -6.9180  -6.8308  -6.7708  -6.6058  -6.4617  -6.4107  -6.3570
    -6.3203  -6.2592  -6.0312  -5.9980  -5.9741  -5.8154  -5.6261  -5.5578
    -4.6895  -4.6829  -4.5740  -4.4947  -4.4281  -4.3527  -4.3080  -4.2697
    -4.2071  -4.1694  -4.1426  -4.1419  -4.1035  -4.0945  -4.0917  -4.0510
    -3.3857  -3.3724  -3.2628  -3.2144   0.3862   0.4194   0.4964   0.4967
     0.5656   0.5706   0.6779   0.6943   5.8787   6.3692   6.3932   6.7337
     6.7797   7.1700   8.0081   8.6093   9.3288   9.5956   9.8114   9.9901
    10.2187  10.5611  10.9442  11.3579  11.4859  11.6879  11.8802  12.1738
    12.2344  12.3234  12.5133  12.6408  12.8812  13.0051  13.2229  13.3596
    13.5354  13.7705  13.8662  13.9319  14.0145  14.4461  14.7578  14.9124
    14.9276  15.0640  15.1741  15.4120  15.6130  15.8851  15.9837  16.0064
    16.0999  16.2823  16.4189  16.8793  16.9942  17.1680  17.4318  17.5325
    17.7473  18.0082  18.3311

     occupation numbers 
     1.0000   1.0000   1.0000   1.0000   1.0000   1.0000   1.0000   1.0000
     1.0000   1.0000   1.0000   1.0000   1.0000   1.0000   1.0000   1.0000
     1.0000   1.0000   1.0000   1.0000   1.0000   1.0000   1.0000   1.0000
     1.0000   1.0000   1.0000   1.0000   1.0000   1.0000   1.0000   1.0000
     1.0000   1.0000   1.0000   1.0000   1.0000   1.0000   1.0000   1.0000
     1.0000   1.0000   1.0000   1.0000   1.0000   1.0000   1.0000   1.0000
     1.0000   1.0000   1.0000   1.0000   1.0000   1.0000   1.0000   1.0000
     1.0000   1.0000   1.0000   1.0000   1.0000   1.0000   1.0000   1.0000
     1.0000   1.0000   1.0000   1.0000   1.0336   1.0763   0.7467   0.7433
     0.1209   0.0988   0.0001   0.0000   0.0000   0.0000   0.0000   0.0000
     0.0000   0.0000   0.0000   0.0000   0.0000   0.0000   0.0000   0.0000
     0.0000   0.0000   0.0000   0.0000   0.0000   0.0000   0.0000   0.0000
     0.0000   0.0000   0.0000   0.0000   0.0000   0.0000   0.0000   0.0000
     0.0000   0.0000   0.0000   0.0000   0.0000   0.0000   0.0000   0.0000
     0.0000   0.0000   0.0000   0.0000   0.0000   0.0000   0.0000   0.0000
     0.0000   0.0000   0.0000   0.0000   0.0000   0.0000   0.0000   0.0000
     0.0000   0.0000   0.0000

          k = 0.0000 0.0000-0.2175 ( 17978 PWs)   bands (ev):

   -25.8363 -25.8197 -25.7908 -25.7815 -25.3197 -25.2862 -25.2485 -25.2238
   -24.3287 -24.3152 -24.2978 -24.2814 -24.2718 -24.2620 -24.2573 -24.2396
   -13.5031 -13.4805 -13.4152 -13.3903  -8.1973  -8.1894  -8.1264  -8.0782
    -7.3818  -7.3202  -7.2308  -7.2080  -7.1971  -7.1669  -7.1453  -7.0699
    -6.9612  -6.8858  -6.8677  -6.7981  -6.5508  -6.4617  -6.4141  -6.3394
    -6.3210  -6.2501  -6.0222  -6.0029  -5.9617  -5.8466  -5.6249  -5.5739
    -4.6426  -4.6368  -4.5732  -4.5097  -4.4281  -4.3733  -4.2993  -4.2662
    -4.2110  -4.1625  -4.1604  -4.1441  -4.1241  -4.0929  -4.0921  -4.0607
    -3.3708  -3.3522  -3.2847  -3.2420   0.3957   0.4410   0.4762   0.5193
     0.5324   0.6004   0.6505   0.6858   5.9794   6.3716   6.3925   6.6228
     6.7902   6.9152   8.3171   8.5910   9.3911   9.7590   9.8865  10.0519
    10.3487  10.3944  11.0683  11.2395  11.4794  11.5129  11.5483  12.2427
    12.2678  12.2928  12.6890  12.6951  12.8660  12.9168  13.0076  13.3520
    13.4363  13.8148  13.9073  13.9232  14.2159  14.3606  14.5521  14.6332
    14.7939  15.1470  15.3255  15.3323  15.8525  15.8737  15.9270  16.0222
    16.0328  16.3268  16.6861  16.7382  17.0071  17.2728  17.4729  17.5358
    17.8679  17.9964  18.4944

     occupation numbers 
     1.0000   1.0000   1.0000   1.0000   1.0000   1.0000   1.0000   1.0000
     1.0000   1.0000   1.0000   1.0000   1.0000   1.0000   1.0000   1.0000
     1.0000   1.0000   1.0000   1.0000   1.0000   1.0000   1.0000   1.0000
     1.0000   1.0000   1.0000   1.0000   1.0000   1.0000   1.0000   1.0000
     1.0000   1.0000   1.0000   1.0000   1.0000   1.0000   1.0000   1.0000
     1.0000   1.0000   1.0000   1.0000   1.0000   1.0000   1.0000   1.0000
     1.0000   1.0000   1.0000   1.0000   1.0000   1.0000   1.0000   1.0000
     1.0000   1.0000   1.0000   1.0000   1.0000   1.0000   1.0000   1.0000
     1.0000   1.0000   1.0000   1.0000   1.0457   1.0788   0.9319   0.4964
     0.3613   0.0239   0.0010   0.0001   0.0000   0.0000   0.0000   0.0000
     0.0000   0.0000   0.0000   0.0000   0.0000   0.0000   0.0000   0.0000
     0.0000   0.0000   0.0000   0.0000   0.0000   0.0000   0.0000   0.0000
     0.0000   0.0000   0.0000   0.0000   0.0000   0.0000   0.0000   0.0000
     0.0000   0.0000   0.0000   0.0000   0.0000   0.0000   0.0000   0.0000
     0.0000   0.0000   0.0000   0.0000   0.0000   0.0000   0.0000   0.0000
     0.0000   0.0000   0.0000   0.0000   0.0000   0.0000   0.0000   0.0000
     0.0000   0.0000   0.0000

          k = 0.0000 0.0000-0.3262 ( 17949 PWs)   bands (ev):

   -25.8308 -25.8249 -25.7878 -25.7845 -25.3097 -25.2978 -25.2404 -25.2315
   -24.3254 -24.3206 -24.2896 -24.2802 -24.2739 -24.2672 -24.2513 -24.2448
   -13.4752 -13.4518 -13.4438 -13.4197  -8.1975  -8.1945  -8.0985  -8.0809
    -7.3885  -7.3644  -7.2368  -7.2237  -7.1833  -7.1740  -7.1172  -7.0858
    -6.9336  -6.9043  -6.8586  -6.8297  -6.4766  -6.4550  -6.4245  -6.3868
    -6.2803  -6.2552  -6.0140  -6.0083  -5.9308  -5.8885  -5.6152  -5.5959
    -4.6017  -4.5793  -4.5782  -4.5349  -4.4196  -4.3996  -4.2738  -4.2494
    -4.2318  -4.2148  -4.1553  -4.1529  -4.1043  -4.0924  -4.0909  -4.0796
    -3.3458  -3.3198  -3.3148  -3.2802   0.4174   0.4472   0.4663   0.4966
     0.5598   0.6078   0.6356   0.6661   6.1462   6.3485   6.3907   6.4110
     6.8075   6.8356   8.4901   8.5601   9.5480   9.7972   9.9686   9.9931
    10.4976  10.5156  11.0519  11.1712  11.2977  11.4403  11.5007  11.7778
    12.2883  12.3086  12.7832  12.8183  12.9298  12.9314  13.1801  13.3340
    13.4690  13.5971  13.7280  13.8963  14.3077  14.4771  14.4932  14.6022
    14.7027  15.0518  15.2532  15.3929  15.7074  15.7422  15.9873  16.0284
    16.3068  16.3765  16.6670  16.7229  16.9984  17.3054  17.4051  17.6332
    18.0823  18.4214  18.4573

     occupation numbers 
     1.0000   1.0000   1.0000   1.0000   1.0000   1.0000   1.0000   1.0000
     1.0000   1.0000   1.0000   1.0000   1.0000   1.0000   1.0000   1.0000
     1.0000   1.0000   1.0000   1.0000   1.0000   1.0000   1.0000   1.0000
     1.0000   1.0000   1.0000   1.0000   1.0000   1.0000   1.0000   1.0000
     1.0000   1.0000   1.0000   1.0000   1.0000   1.0000   1.0000   1.0000
     1.0000   1.0000   1.0000   1.0000   1.0000   1.0000   1.0000   1.0000
     1.0000   1.0000   1.0000   1.0000   1.0000   1.0000   1.0000   1.0000
     1.0000   1.0000   1.0000   1.0000   1.0000   1.0000   1.0000   1.0000
     1.0000   1.0000   1.0000   1.0000   1.0742   1.0692   0.9970   0.7445
     0.1509   0.0159   0.0028   0.0003   0.0000   0.0000   0.0000   0.0000
     0.0000   0.0000   0.0000   0.0000   0.0000   0.0000   0.0000   0.0000
     0.0000   0.0000   0.0000   0.0000   0.0000   0.0000   0.0000   0.0000
     0.0000   0.0000   0.0000   0.0000   0.0000   0.0000   0.0000   0.0000
     0.0000   0.0000   0.0000   0.0000   0.0000   0.0000   0.0000   0.0000
     0.0000   0.0000   0.0000   0.0000   0.0000   0.0000   0.0000   0.0000
     0.0000   0.0000   0.0000   0.0000   0.0000   0.0000   0.0000   0.0000
     0.0000   0.0000   0.0000

          k = 0.1131 0.0000 0.0000 ( 17965 PWs)   bands (ev):

   -25.8399 -25.8154 -25.7936 -25.7795 -25.3272 -25.2819 -25.2499 -25.2180
   -24.3300 -24.3145 -24.2991 -24.2898 -24.2653 -24.2641 -24.2556 -24.2367
   -13.5281 -13.5083 -13.3865 -13.3636  -8.1943  -8.1883  -8.1558  -8.0885
    -7.3223  -7.2678  -7.2618  -7.2218  -7.1654  -7.1637  -7.1212  -7.0869
    -6.9849  -6.9449  -6.8119  -6.7780  -6.6108  -6.4865  -6.4057  -6.3634
    -6.2931  -6.2584  -6.0346  -6.0025  -5.9574  -5.8076  -5.6302  -5.5654
    -4.7083  -4.7012  -4.5699  -4.4886  -4.4289  -4.3529  -4.3067  -4.2707
    -4.2091  -4.1699  -4.1507  -4.1344  -4.1048  -4.0985  -4.0720  -4.0506
    -3.3905  -3.3804  -3.2527  -3.2071   0.3865   0.4081   0.4898   0.5002
     0.5625   0.5812   0.6860   0.6972   5.9088   6.3693   6.3906   6.7459
     6.7810   7.3957   7.7570   8.4151   9.3782   9.6258   9.8760   9.8783
    10.0245  10.7874  10.8797  11.2643  11.6517  11.7417  12.1444  12.1658
    12.2214  12.3096  12.4095  12.4776  12.9376  13.1139  13.1961  13.3994
    13.5683  13.8411  13.9882  14.0014  14.1716  14.4268  14.4742  14.7121
    14.9278  15.1507  15.4213  15.4502  15.5351  15.8693  15.9599  16.0345
    16.1010  16.1331  16.2833  16.7491  17.0372  17.0735  17.4435  17.7573
    17.8298  17.9336  18.1876

     occupation numbers 
     1.0000   1.0000   1.0000   1.0000   1.0000   1.0000   1.0000   1.0000
     1.0000   1.0000   1.0000   1.0000   1.0000   1.0000   1.0000   1.0000
     1.0000   1.0000   1.0000   1.0000   1.0000   1.0000   1.0000   1.0000
     1.0000   1.0000   1.0000   1.0000   1.0000   1.0000   1.0000   1.0000
     1.0000   1.0000   1.0000   1.0000   1.0000   1.0000   1.0000   1.0000
     1.0000   1.0000   1.0000   1.0000   1.0000   1.0000   1.0000   1.0000
     1.0000   1.0000   1.0000   1.0000   1.0000   1.0000   1.0000   1.0000
     1.0000   1.0000   1.0000   1.0000   1.0000   1.0000   1.0000   1.0000
     1.0000   1.0000   1.0000   1.0000   1.0340   1.0627   0.8134   0.7054
     0.1362   0.0622   0.0001   0.0000   0.0000   0.0000   0.0000   0.0000
     0.0000   0.0000   0.0000   0.0000   0.0000   0.0000   0.0000   0.0000
     0.0000   0.0000   0.0000   0.0000   0.0000   0.0000   0.0000   0.0000
     0.0000   0.0000   0.0000   0.0000   0.0000   0.0000   0.0000   0.0000
     0.0000   0.0000   0.0000   0.0000   0.0000   0.0000   0.0000   0.0000
     0.0000   0.0000   0.0000   0.0000   0.0000   0.0000   0.0000   0.0000
     0.0000   0.0000   0.0000   0.0000   0.0000   0.0000   0.0000   0.0000
     0.0000   0.0000   0.0000

          k = 0.1131 0.0000-0.1087 ( 17962 PWs)   bands (ev):

   -25.8385 -25.8164 -25.7930 -25.7803 -25.3250 -25.2834 -25.2494 -25.2197
   -24.3296 -24.3142 -24.2995 -24.2870 -24.2672 -24.2624 -24.2570 -24.2376
   -13.5213 -13.5014 -13.3937 -13.3709  -8.1980  -8.1867  -8.1467  -8.0848
    -7.3482  -7.2861  -7.2384  -7.2137  -7.1874  -7.1568  -7.1390  -7.0772
    -6.9828  -6.9244  -6.8280  -6.7873  -6.5936  -6.4768  -6.4061  -6.3639
    -6.2885  -6.2506  -6.0309  -6.0043  -5.9568  -5.8185  -5.6313  -5.5708
    -4.6902  -4.6838  -4.5697  -4.4946  -4.4298  -4.3597  -4.3051  -4.2703
    -4.2079  -4.1668  -4.1445  -4.1425  -4.1055  -4.0999  -4.0853  -4.0515
    -3.3857  -3.3738  -3.2606  -3.2170   0.3878   0.4178   0.4932   0.4973
     0.5679   0.5724   0.6789   0.6937   5.9409   6.3704   6.3911   6.7251
     6.7859   7.1813   7.9484   8.4339   9.3916   9.6522   9.8516   9.9777
    10.1449  10.6349  10.9274  11.3823  11.5149  11.6695  11.9205  12.1296
    12.2483  12.3028  12.5706  12.6276  12.9320  13.0154  13.2588  13.3776
    13.4799  13.6521  13.9352  13.9944  14.1139  14.5015  14.5605  14.8207
    14.9996  15.0394  15.2703  15.4202  15.6096  15.9061  15.9350  15.9867
    16.0552  16.2940  16.3956  16.8450  16.9263  17.1082  17.4121  17.5826
    17.8571  18.0960  18.2013

     occupation numbers 
     1.0000   1.0000   1.0000   1.0000   1.0000   1.0000   1.0000   1.0000
     1.0000   1.0000   1.0000   1.0000   1.0000   1.0000   1.0000   1.0000
     1.0000   1.0000   1.0000   1.0000   1.0000   1.0000   1.0000   1.0000
     1.0000   1.0000   1.0000   1.0000   1.0000   1.0000   1.0000   1.0000
     1.0000   1.0000   1.0000   1.0000   1.0000   1.0000   1.0000   1.0000
     1.0000   1.0000   1.0000   1.0000   1.0000   1.0000   1.0000   1.0000
     1.0000   1.0000   1.0000   1.0000   1.0000   1.0000   1.0000   1.0000
     1.0000   1.0000   1.0000   1.0000   1.0000   1.0000   1.0000   1.0000
     1.0000   1.0000   1.0000   1.0000   1.0356   1.0745   0.7796   0.7368
     0.1102   0.0916   0.0001   0.0000   0.0000   0.0000   0.0000   0.0000
     0.0000   0.0000   0.0000   0.0000   0.0000   0.0000   0.0000   0.0000
     0.0000   0.0000   0.0000   0.0000   0.0000   0.0000   0.0000   0.0000
     0.0000   0.0000   0.0000   0.0000   0.0000   0.0000   0.0000   0.0000
     0.0000   0.0000   0.0000   0.0000   0.0000   0.0000   0.0000   0.0000
     0.0000   0.0000   0.0000   0.0000   0.0000   0.0000   0.0000   0.0000
     0.0000   0.0000   0.0000   0.0000   0.0000   0.0000   0.0000   0.0000
     0.0000   0.0000   0.0000

          k = 0.1131 0.0000-0.2175 ( 17965 PWs)   bands (ev):

   -25.8348 -25.8194 -25.7914 -25.7825 -25.3187 -25.2891 -25.2465 -25.2248
   -24.3280 -24.3156 -24.2974 -24.2813 -24.2720 -24.2607 -24.2580 -24.2405
   -13.5022 -13.4819 -13.4137 -13.3914  -8.1996  -8.1893  -8.1234  -8.0790
    -7.3802  -7.3254  -7.2303  -7.2076  -7.1941  -7.1684  -7.1407  -7.0746
    -6.9631  -6.8990  -6.8618  -6.8105  -6.5419  -6.4606  -6.4100  -6.3655
    -6.2781  -6.2404  -6.0226  -6.0075  -5.9486  -5.8475  -5.6316  -5.5861
    -4.6471  -4.6392  -4.5710  -4.5116  -4.4291  -4.3784  -4.2970  -4.2628
    -4.2099  -4.1609  -4.1596  -4.1422  -4.1271  -4.0947  -4.0907  -4.0636
    -3.3706  -3.3542  -3.2824  -3.2441   0.3975   0.4377   0.4779   0.5115
     0.5424   0.5985   0.6528   0.6846   6.0372   6.3730   6.3915   6.6269
     6.7975   6.9415   8.1563   8.4463   9.4929   9.7622   9.9115  10.0728
    10.3743  10.4752  11.0541  11.2641  11.4269  11.5444  11.5785  12.1018
    12.2689  12.3133  12.6521  12.7638  12.8616  12.9331  13.0720  13.4185
    13.4728  13.6576  13.9264  13.9920  14.1440  14.4425  14.5008  14.7554
    14.8212  15.1095  15.3260  15.4106  15.7082  15.8450  15.9066  15.9313
    16.0588  16.3979  16.6720  16.7349  17.0024  17.1626  17.3051  17.6653
    17.8186  18.2017  18.2627

     occupation numbers 
     1.0000   1.0000   1.0000   1.0000   1.0000   1.0000   1.0000   1.0000
     1.0000   1.0000   1.0000   1.0000   1.0000   1.0000   1.0000   1.0000
     1.0000   1.0000   1.0000   1.0000   1.0000   1.0000   1.0000   1.0000
     1.0000   1.0000   1.0000   1.0000   1.0000   1.0000   1.0000   1.0000
     1.0000   1.0000   1.0000   1.0000   1.0000   1.0000   1.0000   1.0000
     1.0000   1.0000   1.0000   1.0000   1.0000   1.0000   1.0000   1.0000
     1.0000   1.0000   1.0000   1.0000   1.0000   1.0000   1.0000   1.0000
     1.0000   1.0000   1.0000   1.0000   1.0000   1.0000   1.0000   1.0000
     1.0000   1.0000   1.0000   1.0000   1.0481   1.0816   0.9181   0.5817
     0.2718   0.0264   0.0008   0.0001   0.0000   0.0000   0.0000   0.0000
     0.0000   0.0000   0.0000   0.0000   0.0000   0.0000   0.0000   0.0000
     0.0000   0.0000   0.0000   0.0000   0.0000   0.0000   0.0000   0.0000
     0.0000   0.0000   0.0000   0.0000   0.0000   0.0000   0.0000   0.0000
     0.0000   0.0000   0.0000   0.0000   0.0000   0.0000   0.0000   0.0000
     0.0000   0.0000   0.0000   0.0000   0.0000   0.0000   0.0000   0.0000
     0.0000   0.0000   0.0000   0.0000   0.0000   0.0000   0.0000   0.0000
     0.0000   0.0000   0.0000

          k = 0.1131 0.0000-0.3262 ( 17969 PWs)   bands (ev):

   -25.8296 -25.8241 -25.7887 -25.7855 -25.3092 -25.2985 -25.2401 -25.2322
   -24.3246 -24.3198 -24.2908 -24.2826 -24.2715 -24.2656 -24.2520 -24.2456
   -13.4744 -13.4545 -13.4412 -13.4206  -8.1976  -8.1937  -8.0979  -8.0815
    -7.3890  -7.3675  -7.2364  -7.2257  -7.1790  -7.1704  -7.1182  -7.0898
    -6.9381  -6.9111  -6.8618  -6.8376  -6.4730  -6.4463  -6.4202  -6.3920
    -6.2595  -6.2426  -6.0152  -6.0107  -5.9235  -5.8860  -5.6240  -5.6067
    -4.6058  -4.5868  -4.5778  -4.5397  -4.4206  -4.4020  -4.2696  -4.2440
    -4.2277  -4.2100  -4.1543  -4.1534  -4.1084  -4.0925  -4.0914  -4.0837
    -3.3459  -3.3261  -3.3090  -3.2814   0.4186   0.4448   0.4682   0.4943
     0.5640   0.6073   0.6363   0.6646   6.1951   6.3636   6.3910   6.4303
     6.8158   6.8488   8.2941   8.3940   9.6743   9.8385  10.0104  10.0434
    10.5322  10.5474  11.0745  11.1882  11.3103  11.4111  11.4964  11.7967
    12.1801  12.2701  12.7240  12.8251  12.8872  12.9721  13.1741  13.3868
    13.5129  13.6791  13.7729  13.9248  14.1922  14.3662  14.5191  14.6675
    14.9094  15.0375  15.3563  15.4366  15.6023  15.7002  15.9553  16.0152
    16.1137  16.3476  16.6514  16.7261  17.0155  17.2385  17.5308  17.6805
    17.9759  18.2132  18.3495

     occupation numbers 
     1.0000   1.0000   1.0000   1.0000   1.0000   1.0000   1.0000   1.0000
     1.0000   1.0000   1.0000   1.0000   1.0000   1.0000   1.0000   1.0000
     1.0000   1.0000   1.0000   1.0000   1.0000   1.0000   1.0000   1.0000
     1.0000   1.0000   1.0000   1.0000   1.0000   1.0000   1.0000   1.0000
     1.0000   1.0000   1.0000   1.0000   1.0000   1.0000   1.0000   1.0000
     1.0000   1.0000   1.0000   1.0000   1.0000   1.0000   1.0000   1.0000
     1.0000   1.0000   1.0000   1.0000   1.0000   1.0000   1.0000   1.0000
     1.0000   1.0000   1.0000   1.0000   1.0000   1.0000   1.0000   1.0000
     1.0000   1.0000   1.0000   1.0000   1.0754   1.0736   0.9857   0.7681
     0.1290   0.0163   0.0027   0.0003   0.0000   0.0000   0.0000   0.0000
     0.0000   0.0000   0.0000   0.0000   0.0000   0.0000   0.0000   0.0000
     0.0000   0.0000   0.0000   0.0000   0.0000   0.0000   0.0000   0.0000
     0.0000   0.0000   0.0000   0.0000   0.0000   0.0000   0.0000   0.0000
     0.0000   0.0000   0.0000   0.0000   0.0000   0.0000   0.0000   0.0000
     0.0000   0.0000   0.0000   0.0000   0.0000   0.0000   0.0000   0.0000
     0.0000   0.0000   0.0000   0.0000   0.0000   0.0000   0.0000   0.0000
     0.0000   0.0000   0.0000

          k = 0.2262 0.0000 0.0000 ( 17961 PWs)   bands (ev):

   -25.8351 -25.8174 -25.7928 -25.7824 -25.3230 -25.2942 -25.2404 -25.2208
   -24.3290 -24.3201 -24.2914 -24.2871 -24.2675 -24.2671 -24.2527 -24.2394
   -13.5254 -13.5118 -13.3827 -13.3669  -8.2056  -8.1979  -8.1346  -8.0913
    -7.3071  -7.2783  -7.2668  -7.2132  -7.1688  -7.1548  -7.1326  -7.0904
    -6.9838  -6.9539  -6.8071  -6.8017  -6.5933  -6.5264  -6.3974  -6.3557
    -6.2509  -6.2407  -6.0244  -5.9954  -5.9319  -5.8239  -5.6401  -5.5976
    -4.7055  -4.7023  -4.5561  -4.4912  -4.4316  -4.3710  -4.2990  -4.2801
    -4.2062  -4.1671  -4.1485  -4.1347  -4.1125  -4.1074  -4.0654  -4.0498
    -3.3904  -3.3837  -3.2463  -3.2146   0.3904   0.4052   0.4877   0.4936
     0.5714   0.5833   0.6883   0.6959   6.0900   6.3740   6.3842   6.7176
     6.7972   7.2131   7.8480   8.1887   9.2848   9.6472   9.7896   9.9531
    10.1295  10.6752  11.0509  11.3145  11.6972  11.7231  11.9884  12.2404
    12.2934  12.4284  12.4815  12.6197  12.8333  12.9433  13.2866  13.3675
    13.7053  13.9655  13.9716  14.1198  14.1621  14.3550  14.4172  14.7034
    14.7708  15.2600  15.3261  15.3656  15.6391  15.7928  15.8613  15.9077
    16.0438  16.1991  16.4360  16.7728  16.9474  16.9883  17.4056  17.6519
    17.8184  17.9159  18.3154

     occupation numbers 
     1.0000   1.0000   1.0000   1.0000   1.0000   1.0000   1.0000   1.0000
     1.0000   1.0000   1.0000   1.0000   1.0000   1.0000   1.0000   1.0000
     1.0000   1.0000   1.0000   1.0000   1.0000   1.0000   1.0000   1.0000
     1.0000   1.0000   1.0000   1.0000   1.0000   1.0000   1.0000   1.0000
     1.0000   1.0000   1.0000   1.0000   1.0000   1.0000   1.0000   1.0000
     1.0000   1.0000   1.0000   1.0000   1.0000   1.0000   1.0000   1.0000
     1.0000   1.0000   1.0000   1.0000   1.0000   1.0000   1.0000   1.0000
     1.0000   1.0000   1.0000   1.0000   1.0000   1.0000   1.0000   1.0000
     1.0000   1.0000   1.0000   1.0000   1.0387   1.0587   0.8328   0.7747
     0.0955   0.0565   0.0000   0.0000   0.0000   0.0000   0.0000   0.0000
     0.0000   0.0000   0.0000   0.0000   0.0000   0.0000   0.0000   0.0000
     0.0000   0.0000   0.0000   0.0000   0.0000   0.0000   0.0000   0.0000
     0.0000   0.0000   0.0000   0.0000   0.0000   0.0000   0.0000   0.0000
     0.0000   0.0000   0.0000   0.0000   0.0000   0.0000   0.0000   0.0000
     0.0000   0.0000   0.0000   0.0000   0.0000   0.0000   0.0000   0.0000
     0.0000   0.0000   0.0000   0.0000   0.0000   0.0000   0.0000   0.0000
     0.0000   0.0000   0.0000

          k = 0.2262 0.0000-0.1087 ( 17960 PWs)   bands (ev):

   -25.8340 -25.8177 -25.7928 -25.7831 -25.3210 -25.2943 -25.2411 -25.2226
   -24.3283 -24.3189 -24.2934 -24.2846 -24.2696 -24.2649 -24.2538 -24.2402
   -13.5186 -13.5049 -13.3898 -13.3742  -8.2052  -8.1951  -8.1294  -8.0881
    -7.3378  -7.2975  -7.2419  -7.2060  -7.1824  -7.1628  -7.1342  -7.0862
    -6.9810  -6.9395  -6.8229  -6.8102  -6.5756  -6.5071  -6.3999  -6.3609
    -6.2423  -6.2320  -6.0217  -5.9979  -5.9324  -5.8328  -5.6428  -5.6026
    -4.6914  -4.6852  -4.5581  -4.4989  -4.4315  -4.3763  -4.2990  -4.2748
    -4.2043  -4.1647  -4.1449  -4.1404  -4.1164  -4.1035  -4.0763  -4.0544
    -3.3854  -3.3775  -3.2544  -3.2241   0.3924   0.4131   0.4899   0.4950
     0.5731   0.5761   0.6815   0.6919   6.1168   6.3748   6.3860   6.6957
     6.8037   7.1450   7.8206   8.2211   9.3350   9.7306   9.8535   9.9598
    10.2256  10.6652  11.0120  11.3377  11.6150  11.6761  11.8830  12.1376
    12.2496  12.3766  12.6091  12.7101  12.8667  12.9477  13.1699  13.4581
    13.6556  13.6816  14.0455  14.0798  14.1605  14.2956  14.5115  14.7156
    14.9428  15.1980  15.3196  15.3992  15.5906  15.7322  15.8726  15.8971
    16.0484  16.3242  16.4944  16.7862  16.9590  17.0305  17.3020  17.5240
    17.7827  18.0744  18.2823

     occupation numbers 
     1.0000   1.0000   1.0000   1.0000   1.0000   1.0000   1.0000   1.0000
     1.0000   1.0000   1.0000   1.0000   1.0000   1.0000   1.0000   1.0000
     1.0000   1.0000   1.0000   1.0000   1.0000   1.0000   1.0000   1.0000
     1.0000   1.0000   1.0000   1.0000   1.0000   1.0000   1.0000   1.0000
     1.0000   1.0000   1.0000   1.0000   1.0000   1.0000   1.0000   1.0000
     1.0000   1.0000   1.0000   1.0000   1.0000   1.0000   1.0000   1.0000
     1.0000   1.0000   1.0000   1.0000   1.0000   1.0000   1.0000   1.0000
     1.0000   1.0000   1.0000   1.0000   1.0000   1.0000   1.0000   1.0000
     1.0000   1.0000   1.0000   1.0000   1.0413   1.0691   0.8116   0.7610
     0.0891   0.0781   0.0001   0.0000   0.0000   0.0000   0.0000   0.0000
     0.0000   0.0000   0.0000   0.0000   0.0000   0.0000   0.0000   0.0000
     0.0000   0.0000   0.0000   0.0000   0.0000   0.0000   0.0000   0.0000
     0.0000   0.0000   0.0000   0.0000   0.0000   0.0000   0.0000   0.0000
     0.0000   0.0000   0.0000   0.0000   0.0000   0.0000   0.0000   0.0000
     0.0000   0.0000   0.0000   0.0000   0.0000   0.0000   0.0000   0.0000
     0.0000   0.0000   0.0000   0.0000   0.0000   0.0000   0.0000   0.0000
     0.0000   0.0000   0.0000

          k = 0.2262 0.0000-0.2175 ( 17956 PWs)   bands (ev):

   -25.8308 -25.8192 -25.7922 -25.7852 -25.3155 -25.2958 -25.2418 -25.2274
   -24.3260 -24.3171 -24.2952 -24.2824 -24.2713 -24.2610 -24.2564 -24.2431
   -13.4995 -13.4856 -13.4098 -13.3945  -8.2021  -8.1922  -8.1144  -8.0827
    -7.3740  -7.3371  -7.2292  -7.2075  -7.1894  -7.1715  -7.1318  -7.0876
    -6.9637  -6.9215  -6.8544  -6.8309  -6.5263  -6.4686  -6.4053  -6.3722
    -6.2278  -6.2176  -6.0154  -6.0030  -5.9283  -5.8558  -5.6473  -5.6164
    -4.6545  -4.6444  -4.5656  -4.5203  -4.4295  -4.3905  -4.2897  -4.2588
    -4.2040  -4.1659  -4.1498  -4.1403  -4.1307  -4.0979  -4.0893  -4.0708
    -3.3700  -3.3591  -3.2763  -3.2499   0.4026   0.4297   0.4820   0.5019
     0.5575   0.5930   0.6588   0.6808   6.1960   6.3771   6.3895   6.6226
     6.8199   7.0039   7.8391   8.1774   9.5610   9.8577   9.9642  10.0524
    10.4446  10.6199  11.0503  11.2582  11.3956  11.5595  11.7118  12.0005
    12.2572  12.3177  12.6511  12.6988  12.7891  12.8642  13.3012  13.4160
    13.5799  13.6272  13.9776  14.0719  14.1342  14.3410  14.4879  14.8498
    15.0044  15.1646  15.2718  15.4592  15.5557  15.6393  15.8359  15.9643
    16.0258  16.4383  16.6060  16.7298  16.9214  17.0788  17.3607  17.4363
    17.7662  18.2001  18.3603

     occupation numbers 
     1.0000   1.0000   1.0000   1.0000   1.0000   1.0000   1.0000   1.0000
     1.0000   1.0000   1.0000   1.0000   1.0000   1.0000   1.0000   1.0000
     1.0000   1.0000   1.0000   1.0000   1.0000   1.0000   1.0000   1.0000
     1.0000   1.0000   1.0000   1.0000   1.0000   1.0000   1.0000   1.0000
     1.0000   1.0000   1.0000   1.0000   1.0000   1.0000   1.0000   1.0000
     1.0000   1.0000   1.0000   1.0000   1.0000   1.0000   1.0000   1.0000
     1.0000   1.0000   1.0000   1.0000   1.0000   1.0000   1.0000   1.0000
     1.0000   1.0000   1.0000   1.0000   1.0000   1.0000   1.0000   1.0000
     1.0000   1.0000   1.0000   1.0000   1.0551   1.0830   0.8843   0.6875
     0.1641   0.0352   0.0005   0.0001   0.0000   0.0000   0.0000   0.0000
     0.0000   0.0000   0.0000   0.0000   0.0000   0.0000   0.0000   0.0000
     0.0000   0.0000   0.0000   0.0000   0.0000   0.0000   0.0000   0.0000
     0.0000   0.0000   0.0000   0.0000   0.0000   0.0000   0.0000   0.0000
     0.0000   0.0000   0.0000   0.0000   0.0000   0.0000   0.0000   0.0000
     0.0000   0.0000   0.0000   0.0000   0.0000   0.0000   0.0000   0.0000
     0.0000   0.0000   0.0000   0.0000   0.0000   0.0000   0.0000   0.0000
     0.0000   0.0000   0.0000

          k = 0.2262 0.0000-0.3262 ( 17972 PWs)   bands (ev):

   -25.8265 -25.8223 -25.7905 -25.7880 -25.3079 -25.3004 -25.2394 -25.2339
   -24.3222 -24.3183 -24.2928 -24.2868 -24.2675 -24.2621 -24.2539 -24.2479
   -13.4720 -13.4591 -13.4366 -13.4231  -8.1970  -8.1930  -8.0957  -8.0836
    -7.3886  -7.3739  -7.2351  -7.2285  -7.1729  -7.1655  -7.1209  -7.1010
    -6.9450  -6.9260  -6.8649  -6.8511  -6.4674  -6.4412  -6.4114  -6.3917
    -6.2181  -6.2130  -6.0101  -6.0068  -5.9116  -5.8848  -5.6457  -5.6337
    -4.6139  -4.5987  -4.5803  -4.5525  -4.4223  -4.4082  -4.2582  -4.2346
    -4.2172  -4.2006  -4.1543  -4.1521  -4.1153  -4.0945  -4.0937  -4.0920
    -3.3457  -3.3339  -3.3019  -3.2846   0.4219   0.4395   0.4723   0.4890
     0.5741   0.6044   0.6395   0.6602   6.3178   6.3774   6.3961   6.4903
     6.8475   6.8997   7.9271   8.0540   9.8354   9.9390  10.0640  10.1158
    10.6127  10.6316  11.1055  11.1565  11.3525  11.3689  11.5690  11.8441
    12.0831  12.2235  12.6578  12.6801  12.8118  12.9117  13.2747  13.3712
    13.6482  13.7914  13.8191  13.9941  14.1256  14.3586  14.5999  14.7653
    15.0071  15.2039  15.3910  15.4486  15.5855  15.6913  15.7815  15.8972
    15.9805  16.2099  16.6013  16.6724  17.0756  17.1362  17.4534  17.5758
    17.8859  18.0911  18.3162

     occupation numbers 
     1.0000   1.0000   1.0000   1.0000   1.0000   1.0000   1.0000   1.0000
     1.0000   1.0000   1.0000   1.0000   1.0000   1.0000   1.0000   1.0000
     1.0000   1.0000   1.0000   1.0000   1.0000   1.0000   1.0000   1.0000
     1.0000   1.0000   1.0000   1.0000   1.0000   1.0000   1.0000   1.0000
     1.0000   1.0000   1.0000   1.0000   1.0000   1.0000   1.0000   1.0000
     1.0000   1.0000   1.0000   1.0000   1.0000   1.0000   1.0000   1.0000
     1.0000   1.0000   1.0000   1.0000   1.0000   1.0000   1.0000   1.0000
     1.0000   1.0000   1.0000   1.0000   1.0000   1.0000   1.0000   1.0000
     1.0000   1.0000   1.0000   1.0000   1.0786   1.0803   0.9594   0.8206
     0.0851   0.0192   0.0021   0.0005   0.0000   0.0000   0.0000   0.0000
     0.0000   0.0000   0.0000   0.0000   0.0000   0.0000   0.0000   0.0000
     0.0000   0.0000   0.0000   0.0000   0.0000   0.0000   0.0000   0.0000
     0.0000   0.0000   0.0000   0.0000   0.0000   0.0000   0.0000   0.0000
     0.0000   0.0000   0.0000   0.0000   0.0000   0.0000   0.0000   0.0000
     0.0000   0.0000   0.0000   0.0000   0.0000   0.0000   0.0000   0.0000
     0.0000   0.0000   0.0000   0.0000   0.0000   0.0000   0.0000   0.0000
     0.0000   0.0000   0.0000

          k = 0.3393 0.0000 0.0000 ( 17960 PWs)   bands (ev):

   -25.8286 -25.8221 -25.7902 -25.7863 -25.3159 -25.3061 -25.2321 -25.2256
   -24.3272 -24.3243 -24.2852 -24.2841 -24.2706 -24.2705 -24.2482 -24.2435
   -13.5213 -13.5164 -13.3773 -13.3717  -8.2098  -8.2066  -8.1150  -8.0999
    -7.2948  -7.2888  -7.2506  -7.2224  -7.1713  -7.1672  -7.1192  -7.1018
    -6.9771  -6.9654  -6.8086  -6.8066  -6.5792  -6.5585  -6.3838  -6.3643
    -6.2243  -6.2239  -6.0018  -5.9874  -5.9002  -5.8579  -5.6439  -5.6294
    -4.7032  -4.7025  -4.5348  -4.5090  -4.4203  -4.3957  -4.2934  -4.2892
    -4.1934  -4.1760  -4.1402  -4.1312  -4.1224  -4.1146  -4.0586  -4.0530
    -3.3895  -3.3872  -3.2366  -3.2252   0.3956   0.4009   0.4867   0.4885
     0.5793   0.5833   0.6911   0.6938   6.3304   6.3746   6.4072   6.6196
     6.8362   6.9592   7.9674   8.0752   9.2507   9.3826   9.8806   9.9301
    10.3720  10.5459  11.2398  11.2972  11.7855  11.7875  11.8887  12.0874
    12.3083  12.4100  12.6093  12.7355  12.8845  12.9308  13.2633  13.3654
    13.7649  13.8787  14.0530  14.1570  14.2870  14.3718  14.3997  14.6496
    14.8290  14.9154  15.2910  15.3981  15.6624  15.7502  15.8679  15.8890
    16.0631  16.0942  16.6217  16.8057  16.8919  16.9246  17.4250  17.5140
    17.7385  17.8081  18.1517

     occupation numbers 
     1.0000   1.0000   1.0000   1.0000   1.0000   1.0000   1.0000   1.0000
     1.0000   1.0000   1.0000   1.0000   1.0000   1.0000   1.0000   1.0000
     1.0000   1.0000   1.0000   1.0000   1.0000   1.0000   1.0000   1.0000
     1.0000   1.0000   1.0000   1.0000   1.0000   1.0000   1.0000   1.0000
     1.0000   1.0000   1.0000   1.0000   1.0000   1.0000   1.0000   1.0000
     1.0000   1.0000   1.0000   1.0000   1.0000   1.0000   1.0000   1.0000
     1.0000   1.0000   1.0000   1.0000   1.0000   1.0000   1.0000   1.0000
     1.0000   1.0000   1.0000   1.0000   1.0000   1.0000   1.0000   1.0000
     1.0000   1.0000   1.0000   1.0000   1.0455   1.0527   0.8431   0.8259
     0.0677   0.0563   0.0000   0.0000   0.0000   0.0000   0.0000   0.0000
     0.0000   0.0000   0.0000   0.0000   0.0000   0.0000   0.0000   0.0000
     0.0000   0.0000   0.0000   0.0000   0.0000   0.0000   0.0000   0.0000
     0.0000   0.0000   0.0000   0.0000   0.0000   0.0000   0.0000   0.0000
     0.0000   0.0000   0.0000   0.0000   0.0000   0.0000   0.0000   0.0000
     0.0000   0.0000   0.0000   0.0000   0.0000   0.0000   0.0000   0.0000
     0.0000   0.0000   0.0000   0.0000   0.0000   0.0000   0.0000   0.0000
     0.0000   0.0000   0.0000

          k = 0.3393 0.0000-0.1087 ( 17942 PWs)   bands (ev):

   -25.8277 -25.8217 -25.7907 -25.7870 -25.3144 -25.3052 -25.2335 -25.2272
   -24.3261 -24.3230 -24.2874 -24.2836 -24.2709 -24.2685 -24.2491 -24.2443
   -13.5145 -13.5096 -13.3845 -13.3790  -8.2075  -8.2035  -8.1114  -8.0969
    -7.3235  -7.3103  -7.2328  -7.2138  -7.1797  -7.1738  -7.1187  -7.1009
    -6.9721  -6.9569  -6.8210  -6.8190  -6.5588  -6.5365  -6.3869  -6.3688
    -6.2153  -6.2134  -6.0007  -5.9885  -5.9033  -5.8641  -5.6481  -5.6343
    -4.6901  -4.6873  -4.5400  -4.5167  -4.4209  -4.3987  -4.2915  -4.2826
    -4.1918  -4.1752  -4.1396  -4.1328  -4.1232  -4.1125  -4.0676  -4.0602
    -3.3842  -3.3814  -3.2450  -3.2341   0.3990   0.4064   0.4893   0.4915
     0.5774   0.5785   0.6851   0.6888   6.3399   6.3758   6.4131   6.6064
     6.8463   6.9699   7.8585   8.0315   9.3670   9.5274   9.9205   9.9606
    10.4184  10.5717  11.1790  11.2767  11.6535  11.7386  11.8828  12.1555
    12.2676  12.3925  12.5584  12.6708  12.8421  12.9308  13.2418  13.4366
    13.8000  13.8663  13.9362  14.0410  14.2820  14.3951  14.4572  14.6632
    14.8745  14.9261  15.3918  15.4568  15.5734  15.6416  15.9123  15.9545
    16.0108  16.1783  16.6643  16.7825  16.8684  16.9453  17.3514  17.5081
    17.7112  17.9065  18.1713

     occupation numbers 
     1.0000   1.0000   1.0000   1.0000   1.0000   1.0000   1.0000   1.0000
     1.0000   1.0000   1.0000   1.0000   1.0000   1.0000   1.0000   1.0000
     1.0000   1.0000   1.0000   1.0000   1.0000   1.0000   1.0000   1.0000
     1.0000   1.0000   1.0000   1.0000   1.0000   1.0000   1.0000   1.0000
     1.0000   1.0000   1.0000   1.0000   1.0000   1.0000   1.0000   1.0000
     1.0000   1.0000   1.0000   1.0000   1.0000   1.0000   1.0000   1.0000
     1.0000   1.0000   1.0000   1.0000   1.0000   1.0000   1.0000   1.0000
     1.0000   1.0000   1.0000   1.0000   1.0000   1.0000   1.0000   1.0000
     1.0000   1.0000   1.0000   1.0000   1.0501   1.0603   0.8182   0.7967
     0.0737   0.0702   0.0001   0.0000   0.0000   0.0000   0.0000   0.0000
     0.0000   0.0000   0.0000   0.0000   0.0000   0.0000   0.0000   0.0000
     0.0000   0.0000   0.0000   0.0000   0.0000   0.0000   0.0000   0.0000
     0.0000   0.0000   0.0000   0.0000   0.0000   0.0000   0.0000   0.0000
     0.0000   0.0000   0.0000   0.0000   0.0000   0.0000   0.0000   0.0000
     0.0000   0.0000   0.0000   0.0000   0.0000   0.0000   0.0000   0.0000
     0.0000   0.0000   0.0000   0.0000   0.0000   0.0000   0.0000   0.0000
     0.0000   0.0000   0.0000

          k = 0.3393 0.0000-0.2175 ( 17943 PWs)   bands (ev):

[...]
     6.9621   7.1292   8.4775   8.5917   9.0239   9.1783   9.4586   9.5665
    10.3030  10.3804  10.6252  10.6932  10.8819  10.9702  11.6274  11.7932
    12.3457  12.5363  12.6983  12.8261  13.1226  13.1701  13.5103  13.6124
    13.9357  14.0314  14.5372  14.6738  14.7716  14.8686  14.9381  15.0337
    15.2100  15.3449  15.5796  15.6165  15.6658  15.8418  15.9279  15.9813
    16.1360  16.1595  16.4522  16.5137  16.6865  16.8987  17.0470  17.3892
    17.6812  17.7026  17.8398

     occupation numbers 
     1.0000   1.0000   1.0000   1.0000   1.0000   1.0000   1.0000   1.0000
     1.0000   1.0000   1.0000   1.0000   1.0000   1.0000   1.0000   1.0000
     1.0000   1.0000   1.0000   1.0000   1.0000   1.0000   1.0000   1.0000
     1.0000   1.0000   1.0000   1.0000   1.0000   1.0000   1.0000   1.0000
     1.0000   1.0000   1.0000   1.0000   1.0000   1.0000   1.0000   1.0000
     1.0000   1.0000   1.0000   1.0000   1.0000   1.0000   1.0000   1.0000
     1.0000   1.0000   1.0000   1.0000   1.0000   1.0000   1.0000   1.0000
     1.0000   1.0000   1.0000   1.0000   1.0000   1.0000   1.0000   1.0000
     1.0000   1.0000   1.0000   1.0000   1.0400   1.0461   0.8778   0.8602
     0.0713   0.0680   0.0005   0.0004   0.0000   0.0000   0.0000   0.0000
     0.0000   0.0000   0.0000   0.0000   0.0000   0.0000   0.0000   0.0000
     0.0000   0.0000   0.0000   0.0000   0.0000   0.0000   0.0000   0.0000
     0.0000   0.0000   0.0000   0.0000   0.0000   0.0000   0.0000   0.0000
     0.0000   0.0000   0.0000   0.0000   0.0000   0.0000   0.0000   0.0000
     0.0000   0.0000   0.0000   0.0000   0.0000   0.0000   0.0000   0.0000
     0.0000   0.0000   0.0000   0.0000   0.0000   0.0000   0.0000   0.0000
     0.0000   0.0000   0.0000

          k = 0.3393 0.4444-0.1685 ( 17945 PWs)   bands (ev):

   -25.8218 -25.8180 -25.7877 -25.7846 -25.3149 -25.3035 -25.2421 -25.2365
   -24.3304 -24.3267 -24.2916 -24.2891 -24.2629 -24.2613 -24.2482 -24.2438
   -13.5215 -13.5171 -13.3787 -13.3732  -8.2294  -8.2219  -8.0869  -8.0546
    -7.3442  -7.3200  -7.2826  -7.2588  -7.1709  -7.1586  -7.1139  -7.1061
    -7.0209  -7.0152  -6.6638  -6.6492  -6.4777  -6.4710  -6.2895  -6.2853
    -6.2014  -6.1869  -6.0882  -6.0439  -5.9998  -5.9677  -5.7388  -5.7170
    -4.6500  -4.6459  -4.5672  -4.5462  -4.4112  -4.3936  -4.2746  -4.2578
    -4.2290  -4.2115  -4.1558  -4.1523  -4.1079  -4.0975  -4.0748  -4.0670
    -3.3867  -3.3733  -3.2432  -3.2380   0.3920   0.3998   0.4851   0.4881
     0.5698   0.5753   0.6556   0.6615   6.3298   6.3735   6.7119   6.7461
     6.9801   7.1547   8.4009   8.5273   9.0897   9.2453   9.3391   9.4727
    10.3357  10.4042  10.7091  10.8288  10.9337  10.9839  11.6796  11.8430
    12.3557  12.4303  12.7391  12.7919  13.0439  13.1400  13.4711  13.5283
    13.9696  14.0488  14.5136  14.5446  14.7182  14.7962  14.9469  15.0057
    15.1764  15.3218  15.5204  15.6561  15.7039  15.8341  15.8779  15.9120
    16.1661  16.2486  16.4791  16.6130  16.7670  16.8829  17.0075  17.3236
    17.7335  17.8717  17.9525

     occupation numbers 
     1.0000   1.0000   1.0000   1.0000   1.0000   1.0000   1.0000   1.0000
     1.0000   1.0000   1.0000   1.0000   1.0000   1.0000   1.0000   1.0000
     1.0000   1.0000   1.0000   1.0000   1.0000   1.0000   1.0000   1.0000
     1.0000   1.0000   1.0000   1.0000   1.0000   1.0000   1.0000   1.0000
     1.0000   1.0000   1.0000   1.0000   1.0000   1.0000   1.0000   1.0000
     1.0000   1.0000   1.0000   1.0000   1.0000   1.0000   1.0000   1.0000
     1.0000   1.0000   1.0000   1.0000   1.0000   1.0000   1.0000   1.0000
     1.0000   1.0000   1.0000   1.0000   1.0000   1.0000   1.0000   1.0000
     1.0000   1.0000   1.0000   1.0000   1.0408   1.0512   0.8577   0.8299
     0.1021   0.0811   0.0007   0.0004   0.0000   0.0000   0.0000   0.0000
     0.0000   0.0000   0.0000   0.0000   0.0000   0.0000   0.0000   0.0000
     0.0000   0.0000   0.0000   0.0000   0.0000   0.0000   0.0000   0.0000
     0.0000   0.0000   0.0000   0.0000   0.0000   0.0000   0.0000   0.0000
     0.0000   0.0000   0.0000   0.0000   0.0000   0.0000   0.0000   0.0000
     0.0000   0.0000   0.0000   0.0000   0.0000   0.0000   0.0000   0.0000
     0.0000   0.0000   0.0000   0.0000   0.0000   0.0000   0.0000   0.0000
     0.0000   0.0000   0.0000

          k = 0.3393 0.4444-0.2773 ( 17945 PWs)   bands (ev):

   -25.8204 -25.8177 -25.7880 -25.7858 -25.3089 -25.3001 -25.2473 -25.2421
   -24.3274 -24.3245 -24.2931 -24.2897 -24.2625 -24.2593 -24.2507 -24.2453
   -13.5011 -13.4965 -13.4002 -13.3949  -8.2214  -8.2147  -8.0789  -8.0549
    -7.3627  -7.3402  -7.3115  -7.2901  -7.1487  -7.1326  -7.1088  -7.0956
    -6.9885  -6.9733  -6.7277  -6.7032  -6.4699  -6.4578  -6.2939  -6.2884
    -6.2065  -6.1873  -6.0660  -6.0245  -6.0010  -5.9666  -5.7334  -5.7172
    -4.6381  -4.6315  -4.5568  -4.5427  -4.4122  -4.3997  -4.2607  -4.2489
    -4.2294  -4.2142  -4.1678  -4.1649  -4.1065  -4.0989  -4.0794  -4.0706
    -3.3711  -3.3578  -3.2681  -3.2615   0.3939   0.4035   0.4773   0.4850
     0.5659   0.5813   0.6496   0.6598   6.3429   6.3769   6.7298   6.7479
     7.0805   7.2698   8.1967   8.3418   8.9853   9.1287   9.3047   9.3885
    10.4594  10.5204  10.7971  10.8771  11.2228  11.3271  11.8182  11.9462
    12.2294  12.4343  12.6852  12.8183  12.9775  13.0373  13.2943  13.3609
    13.9471  13.9808  14.3408  14.4211  14.5185  14.6668  14.7487  15.0605
    15.2278  15.3642  15.4762  15.6073  15.7579  15.7695  15.8759  15.9687
    16.2716  16.3317  16.4554  16.5984  16.7757  16.9387  17.1155  17.3232
    17.7353  17.8729  18.0581

     occupation numbers 
     1.0000   1.0000   1.0000   1.0000   1.0000   1.0000   1.0000   1.0000
     1.0000   1.0000   1.0000   1.0000   1.0000   1.0000   1.0000   1.0000
     1.0000   1.0000   1.0000   1.0000   1.0000   1.0000   1.0000   1.0000
     1.0000   1.0000   1.0000   1.0000   1.0000   1.0000   1.0000   1.0000
     1.0000   1.0000   1.0000   1.0000   1.0000   1.0000   1.0000   1.0000
     1.0000   1.0000   1.0000   1.0000   1.0000   1.0000   1.0000   1.0000
     1.0000   1.0000   1.0000   1.0000   1.0000   1.0000   1.0000   1.0000
     1.0000   1.0000   1.0000   1.0000   1.0000   1.0000   1.0000   1.0000
     1.0000   1.0000   1.0000   1.0000   1.0432   1.0563   0.9228   0.8581
     0.1197   0.0618   0.0010   0.0005   0.0000   0.0000   0.0000   0.0000
     0.0000   0.0000   0.0000   0.0000   0.0000   0.0000   0.0000   0.0000
     0.0000   0.0000   0.0000   0.0000   0.0000   0.0000   0.0000   0.0000
     0.0000   0.0000   0.0000   0.0000   0.0000   0.0000   0.0000   0.0000
     0.0000   0.0000   0.0000   0.0000   0.0000   0.0000   0.0000   0.0000
     0.0000   0.0000   0.0000   0.0000   0.0000   0.0000   0.0000   0.0000
     0.0000   0.0000   0.0000   0.0000   0.0000   0.0000   0.0000   0.0000
     0.0000   0.0000   0.0000

          k = 0.3393 0.4444-0.3860 ( 17938 PWs)   bands (ev):

   -25.8189 -25.8180 -25.7879 -25.7870 -25.3019 -25.2983 -25.2509 -25.2483
   -24.3242 -24.3231 -24.2938 -24.2918 -24.2604 -24.2588 -24.2510 -24.2484
   -13.4718 -13.4674 -13.4301 -13.4254  -8.2139  -8.2095  -8.0697  -8.0587
    -7.3701  -7.3484  -7.3371  -7.3168  -7.1283  -7.1169  -7.0975  -7.0894
    -6.9380  -6.9114  -6.8127  -6.7836  -6.4591  -6.4476  -6.2952  -6.2910
    -6.2209  -6.1986  -6.0381  -6.0124  -5.9917  -5.9684  -5.7258  -5.7151
    -4.6301  -4.6254  -4.5396  -4.5341  -4.4123  -4.4079  -4.2475  -4.2417
    -4.2228  -4.2147  -4.1868  -4.1806  -4.1018  -4.0998  -4.0828  -4.0780
    -3.3454  -3.3343  -3.2998  -3.2926   0.4029   0.4080   0.4588   0.4629
     0.5866   0.5963   0.6422   0.6495   6.3596   6.3769   6.7359   6.7484
     7.2691   7.4180   7.9671   8.0814   8.8868   8.9587   9.3419   9.4091
    10.5571  10.6085  10.7724  10.8434  11.6545  11.7515  11.9112  11.9874
    12.3081  12.5176  12.5312  12.7764  12.8686  12.9196  13.1534  13.2231
    13.7504  13.7562  14.1639  14.3082  14.4917  14.5937  14.8440  15.1105
    15.1891  15.3826  15.4819  15.5352  15.7428  15.7898  15.9030  16.0875
    16.3230  16.3419  16.4612  16.5728  16.7849  16.9704  17.0960  17.2432
    17.7467  17.8789  17.9352

     occupation numbers 
     1.0000   1.0000   1.0000   1.0000   1.0000   1.0000   1.0000   1.0000
     1.0000   1.0000   1.0000   1.0000   1.0000   1.0000   1.0000   1.0000
     1.0000   1.0000   1.0000   1.0000   1.0000   1.0000   1.0000   1.0000
     1.0000   1.0000   1.0000   1.0000   1.0000   1.0000   1.0000   1.0000
     1.0000   1.0000   1.0000   1.0000   1.0000   1.0000   1.0000   1.0000
     1.0000   1.0000   1.0000   1.0000   1.0000   1.0000   1.0000   1.0000
     1.0000   1.0000   1.0000   1.0000   1.0000   1.0000   1.0000   1.0000
     1.0000   1.0000   1.0000   1.0000   1.0000   1.0000   1.0000   1.0000
     1.0000   1.0000   1.0000   1.0000   1.0554   1.0625   1.0337   1.0151
     0.0483   0.0297   0.0018   0.0010   0.0000   0.0000   0.0000   0.0000
     0.0000   0.0000   0.0000   0.0000   0.0000   0.0000   0.0000   0.0000
     0.0000   0.0000   0.0000   0.0000   0.0000   0.0000   0.0000   0.0000
     0.0000   0.0000   0.0000   0.0000   0.0000   0.0000   0.0000   0.0000
     0.0000   0.0000   0.0000   0.0000   0.0000   0.0000   0.0000   0.0000
     0.0000   0.0000   0.0000   0.0000   0.0000   0.0000   0.0000   0.0000
     0.0000   0.0000   0.0000   0.0000   0.0000   0.0000   0.0000   0.0000
     0.0000   0.0000   0.0000

          k = 0.3393 0.4444 0.2665 ( 17942 PWs)   bands (ev):

   -25.8191 -25.8179 -25.7879 -25.7870 -25.3020 -25.2981 -25.2507 -25.2486
   -24.3246 -24.3229 -24.2931 -24.2919 -24.2618 -24.2588 -24.2510 -24.2474
   -13.4698 -13.4654 -13.4321 -13.4275  -8.2121  -8.2110  -8.0669  -8.0625
    -7.3583  -7.3481  -7.3378  -7.3252  -7.1260  -7.1186  -7.0931  -7.0856
    -6.9060  -6.8800  -6.8549  -6.8253  -6.4549  -6.4463  -6.2905  -6.2894
    -6.2344  -6.2126  -6.0266  -6.0154  -5.9785  -5.9721  -5.7226  -5.7110
    -4.6305  -4.6281  -4.5328  -4.5287  -4.4148  -4.4097  -4.2492  -4.2432
    -4.2175  -4.2131  -4.1904  -4.1847  -4.0995  -4.0949  -4.0855  -4.0828
    -3.3427  -3.3342  -3.3022  -3.2929   0.3985   0.4043   0.4587   0.4647
     0.5869   0.5977   0.6435   0.6521   6.3683   6.3722   6.7381   6.7458
     7.3685   7.4330   7.9175   8.0012   8.8526   8.8740   9.3770   9.4511
    10.5812  10.6652  10.7269  10.7598  11.7372  11.8367  11.9293  11.9925
    12.2380  12.5228  12.6689  12.7736  12.8489  12.9830  13.1453  13.2248
    13.6376  13.6896  14.1585  14.2631  14.4799  14.5968  14.9121  15.0437
    15.1986  15.2435  15.4647  15.6087  15.7143  15.8677  15.9904  16.1712
    16.2745  16.2999  16.5042  16.5966  16.8124  16.9600  17.0776  17.1483
    17.6909  17.8231  17.9568

     occupation numbers 
     1.0000   1.0000   1.0000   1.0000   1.0000   1.0000   1.0000   1.0000
     1.0000   1.0000   1.0000   1.0000   1.0000   1.0000   1.0000   1.0000
     1.0000   1.0000   1.0000   1.0000   1.0000   1.0000   1.0000   1.0000
     1.0000   1.0000   1.0000   1.0000   1.0000   1.0000   1.0000   1.0000
     1.0000   1.0000   1.0000   1.0000   1.0000   1.0000   1.0000   1.0000
     1.0000   1.0000   1.0000   1.0000   1.0000   1.0000   1.0000   1.0000
     1.0000   1.0000   1.0000   1.0000   1.0000   1.0000   1.0000   1.0000
     1.0000   1.0000   1.0000   1.0000   1.0000   1.0000   1.0000   1.0000
     1.0000   1.0000   1.0000   1.0000   1.0495   1.0575   1.0341   1.0059
     0.0476   0.0277   0.0016   0.0009   0.0000   0.0000   0.0000   0.0000
     0.0000   0.0000   0.0000   0.0000   0.0000   0.0000   0.0000   0.0000
     0.0000   0.0000   0.0000   0.0000   0.0000   0.0000   0.0000   0.0000
     0.0000   0.0000   0.0000   0.0000   0.0000   0.0000   0.0000   0.0000
     0.0000   0.0000   0.0000   0.0000   0.0000   0.0000   0.0000   0.0000
     0.0000   0.0000   0.0000   0.0000   0.0000   0.0000   0.0000   0.0000
     0.0000   0.0000   0.0000   0.0000   0.0000   0.0000   0.0000   0.0000
     0.0000   0.0000   0.0000

          k = 0.3393 0.4444 0.1577 ( 17945 PWs)   bands (ev):

   -25.8206 -25.8177 -25.7879 -25.7857 -25.3090 -25.2999 -25.2471 -25.2423
   -24.3278 -24.3244 -24.2921 -24.2896 -24.2640 -24.2606 -24.2499 -24.2442
   -13.4994 -13.4947 -13.4021 -13.3967  -8.2193  -8.2163  -8.0774  -8.0586
    -7.3471  -7.3239  -7.3211  -7.3050  -7.1458  -7.1316  -7.1003  -7.0880
    -6.9722  -6.9502  -6.7763  -6.7425  -6.4623  -6.4530  -6.2853  -6.2825
    -6.2382  -6.2208  -6.0467  -6.0060  -5.9967  -5.9641  -5.7258  -5.7083
    -4.6401  -4.6358  -4.5436  -4.5305  -4.4172  -4.4042  -4.2637  -4.2467
    -4.2216  -4.2199  -4.1720  -4.1690  -4.1003  -4.0902  -4.0856  -4.0804
    -3.3689  -3.3572  -3.2708  -3.2615   0.3860   0.3955   0.4781   0.4863
     0.5677   0.5832   0.6535   0.6644   6.3528   6.3761   6.7328   6.7483
     7.1662   7.3413   8.1013   8.2707   8.8335   8.9119   9.4103   9.4940
    10.5109  10.6172  10.6826  10.7455  11.4206  11.4996  11.8521  11.9180
    12.1500  12.4744  12.7096  12.8700  13.0698  13.1713  13.2891  13.3686
    13.8117  13.9121  14.2329  14.2393  14.5003  14.7017  14.7939  15.0507
    15.1497  15.1697  15.5158  15.5808  15.8444  15.8814  15.9924  16.0710
    16.2601  16.2961  16.5127  16.5730  16.9084  16.9464  17.0959  17.1242
    17.6295  17.7529  18.0749

     occupation numbers 
     1.0000   1.0000   1.0000   1.0000   1.0000   1.0000   1.0000   1.0000
     1.0000   1.0000   1.0000   1.0000   1.0000   1.0000   1.0000   1.0000
     1.0000   1.0000   1.0000   1.0000   1.0000   1.0000   1.0000   1.0000
     1.0000   1.0000   1.0000   1.0000   1.0000   1.0000   1.0000   1.0000
     1.0000   1.0000   1.0000   1.0000   1.0000   1.0000   1.0000   1.0000
     1.0000   1.0000   1.0000   1.0000   1.0000   1.0000   1.0000   1.0000
     1.0000   1.0000   1.0000   1.0000   1.0000   1.0000   1.0000   1.0000
     1.0000   1.0000   1.0000   1.0000   1.0000   1.0000   1.0000   1.0000
     1.0000   1.0000   1.0000   1.0000   1.0334   1.0454   0.9171   0.8463
     0.1114   0.0567   0.0008   0.0003   0.0000   0.0000   0.0000   0.0000
     0.0000   0.0000   0.0000   0.0000   0.0000   0.0000   0.0000   0.0000
     0.0000   0.0000   0.0000   0.0000   0.0000   0.0000   0.0000   0.0000
     0.0000   0.0000   0.0000   0.0000   0.0000   0.0000   0.0000   0.0000
     0.0000   0.0000   0.0000   0.0000   0.0000   0.0000   0.0000   0.0000
     0.0000   0.0000   0.0000   0.0000   0.0000   0.0000   0.0000   0.0000
     0.0000   0.0000   0.0000   0.0000   0.0000   0.0000   0.0000   0.0000
     0.0000   0.0000   0.0000

          k = 0.3393 0.4444 0.0490 ( 17934 PWs)   bands (ev):

   -25.8219 -25.8180 -25.7876 -25.7845 -25.3149 -25.3034 -25.2419 -25.2366
   -24.3306 -24.3266 -24.2906 -24.2892 -24.2637 -24.2624 -24.2479 -24.2429
   -13.5206 -13.5161 -13.3797 -13.3742  -8.2282  -8.2228  -8.0862  -8.0570
    -7.3352  -7.3068  -7.2873  -7.2692  -7.1710  -7.1543  -7.1098  -7.1003
    -7.0161  -7.0041  -6.6985  -6.6704  -6.4745  -6.4640  -6.2835  -6.2807
    -6.2287  -6.2149  -6.0707  -6.0233  -6.0000  -5.9646  -5.7324  -5.7099
    -4.6514  -4.6482  -4.5580  -4.5374  -4.4152  -4.3975  -4.2753  -4.2556
    -4.2247  -4.2169  -4.1581  -4.1545  -4.1042  -4.0903  -4.0789  -4.0751
    -3.3856  -3.3728  -3.2451  -3.2378   0.3848   0.3935   0.4870   0.4908
     0.5694   0.5755   0.6590   0.6657   6.3362   6.3741   6.7188   6.7490
     7.0179   7.1983   8.3700   8.5119   8.8888   9.0318   9.4459   9.5344
    10.3936  10.5079  10.6562  10.7480  11.0285  11.1230  11.7012  11.8373
    12.2111  12.5068  12.7174  12.8771  13.1723  13.2031  13.4540  13.5582
    13.9082  14.0068  14.4107  14.4833  14.6801  14.7916  14.8834  14.9950
    15.1298  15.2404  15.5448  15.6102  15.7450  15.8721  15.9844  16.0492
    16.1259  16.2332  16.4874  16.6023  16.8197  16.9378  17.0219  17.2562
    17.6945  17.7820  17.9075

     occupation numbers 
     1.0000   1.0000   1.0000   1.0000   1.0000   1.0000   1.0000   1.0000
     1.0000   1.0000   1.0000   1.0000   1.0000   1.0000   1.0000   1.0000
     1.0000   1.0000   1.0000   1.0000   1.0000   1.0000   1.0000   1.0000
     1.0000   1.0000   1.0000   1.0000   1.0000   1.0000   1.0000   1.0000
     1.0000   1.0000   1.0000   1.0000   1.0000   1.0000   1.0000   1.0000
     1.0000   1.0000   1.0000   1.0000   1.0000   1.0000   1.0000   1.0000
     1.0000   1.0000   1.0000   1.0000   1.0000   1.0000   1.0000   1.0000
     1.0000   1.0000   1.0000   1.0000   1.0000   1.0000   1.0000   1.0000
     1.0000   1.0000   1.0000   1.0000   1.0321   1.0428   0.8399   0.8031
     0.1037   0.0803   0.0005   0.0003   0.0000   0.0000   0.0000   0.0000
     0.0000   0.0000   0.0000   0.0000   0.0000   0.0000   0.0000   0.0000
     0.0000   0.0000   0.0000   0.0000   0.0000   0.0000   0.0000   0.0000
     0.0000   0.0000   0.0000   0.0000   0.0000   0.0000   0.0000   0.0000
     0.0000   0.0000   0.0000   0.0000   0.0000   0.0000   0.0000   0.0000
     0.0000   0.0000   0.0000   0.0000   0.0000   0.0000   0.0000   0.0000
     0.0000   0.0000   0.0000   0.0000   0.0000   0.0000   0.0000   0.0000
     0.0000   0.0000   0.0000

     the Fermi energy is     0.5284 ev
     (compare with:     0.5284 eV, computed in scf)

     Writing all to output data dir ./pwscf.save/ :
     XML data file, pseudopotentials, collected wavefunctions

     init_run     :      2.78s CPU      2.46s WALL (       1 calls)
     electrons    :   9391.48s CPU   4809.70s WALL (       1 calls)

     Called by init_run:
     wfcinit      :      0.01s CPU      0.01s WALL (       1 calls)
     wfcinit:atom :      1.16s CPU      0.71s WALL (     128 calls)
     wfcinit:wfcr :    363.69s CPU    184.42s WALL (     128 calls)
     potinit      :      1.32s CPU      1.21s WALL (       1 calls)
     hinit0       :      0.58s CPU      0.55s WALL (       1 calls)

     Called by electrons:
     c_bands      :   9391.36s CPU   4809.61s WALL (       1 calls)
     v_of_rho     :      0.61s CPU      0.38s WALL (       1 calls)
     v_h          :      0.09s CPU      0.05s WALL (       1 calls)
     v_xc         :      0.52s CPU      0.33s WALL (       1 calls)
     newd         :      0.56s CPU      0.36s WALL (       1 calls)
     PAW_pot      :      0.25s CPU      0.23s WALL (       1 calls)

     Called by c_bands:
     init_us_2    :      2.58s CPU      1.45s WALL (     128 calls)
     cegterg      :   9012.03s CPU   4616.65s WALL (     261 calls)

     Called by sum_band:

     Called by *egterg:
     cdiaghg      :    287.87s CPU    145.09s WALL (    4721 calls)
     cegterg:over :    723.27s CPU    361.94s WALL (    4593 calls)
     cegterg:upda :    262.00s CPU    131.55s WALL (    4593 calls)
     cegterg:last :    435.39s CPU    216.24s WALL (    2357 calls)
     h_psi        :   6846.97s CPU   3527.75s WALL (    4982 calls)
     s_psi        :    191.20s CPU     98.76s WALL (    4982 calls)
     g_psi        :     19.54s CPU     10.69s WALL (    4593 calls)

     Called by h_psi:
     h_psi:calbec :    413.96s CPU    207.55s WALL (    4982 calls)
     vloc_psi     :   6244.84s CPU   3223.69s WALL (    4982 calls)
                                        0.00s GPU  (    4982 calls)
     add_vuspsi   :    144.69s CPU     73.70s WALL (    4982 calls)

     General routines
     calbec       :    413.75s CPU    207.51s WALL (    4982 calls)
     fft          :      0.78s CPU      0.62s WALL (      13 calls)
     ffts         :      0.35s CPU      0.32s WALL (       1 calls)
     fftw         :   5959.97s CPU   3076.10s WALL (  659096 calls)
     interpolate  :      0.38s CPU      0.34s WALL (       1 calls)

     Parallel routines

     PAW routines
     PAW_pot      :      0.25s CPU      0.23s WALL (       1 calls)

     PWSCF        :      2h36m CPU      1h21m WALL


   This run was terminated on:   1:54:29  17Apr2026            

=------------------------------------------------------------------------------=
   JOB DONE.
=------------------------------------------------------------------------------=
