
     Program PWSCF v.7.5 starts on 16Apr2026 at 22: 3: 8 

     This program is part of the open-source Quantum ESPRESSO suite
     for quantum simulation of materials; please cite
         "P. Giannozzi et al., J. Phys.:Condens. Matter 21 395502 (2009);
         "P. Giannozzi et al., J. Phys.:Condens. Matter 29 465901 (2017);
         "P. Giannozzi et al., J. Chem. Phys. 152 154105 (2020);
          URL http://www.quantum-espresso.org", 
     in publications or presentations arising from this work. More details at
     http://www.quantum-espresso.org/quote

     Parallel version (MPI & OpenMP), running on      16 processor cores
     Number of MPI processes:                 8
     Threads/MPI process:                     2

     MPI processes distributed on     1 nodes
     6526 MiB available memory on the printing compute node when the environment starts

     Reading input from scf.in
Warning: card &CELL ignored

     Current dimensions of program PWSCF are:
     Max number of different atomic species (ntypx) = 10
     Max number of k-points (npk) =  40000
     Max angular momentum in pseudopotentials (lmaxx) =  4
     file O.pbe-n-kjpaw_psl.0.1.UPF: wavefunction(s)  2P renormalized
     Message from routine setup:
     using ibrav=0 with symmetry is DISCOURAGED, use correct ibrav instead

     R & G space division:  proc/nbgrp/npool/nimage =       8
     Subspace diagonalization in iterative solution of the eigenvalue problem:
     a serial algorithm will be used


     Parallelization info
     --------------------
     sticks:   dense  smooth     PW     G-vecs:    dense   smooth      PW
     Min         746     374    103                50779    17966    2578
     Max         747     375    104                50780    17968    2580
     Sum        5975    2999    825               406233   143741   20633

     Using Slab Decomposition



     bravais-lattice index     =            0
     lattice parameter (alat)  =      11.1298  a.u.
     unit-cell volume          =    2287.9238 (a.u.)^3
     number of atoms/cell      =           24
     number of atomic types    =            3
     number of electrons       =       144.00
     number of Kohn-Sham states=          131
     kinetic-energy cutoff     =      60.0000  Ry
     charge density cutoff     =     480.0000  Ry
     scf convergence threshold =      1.0E-08
     mixing beta               =       0.4000
     number of iterations used =            8  plain     mixing
     Exchange-correlation= SLA  PW   PBX  PBC
                           (   1   4   3   4   0   0   0)

     celldm(1)=  11.129807  celldm(2)=   0.000000  celldm(3)=   0.000000
     celldm(4)=   0.000000  celldm(5)=   0.000000  celldm(6)=   0.000000

     crystal axes: (cart. coord. in units of alat)
               a(1) = (   0.000000   1.000000   0.000000 )  
               a(2) = (   1.263274   0.000000   0.000000 )  
               a(3) = (   0.000000  -0.176644  -1.313654 )  

     reciprocal axes: (cart. coord. in units 2 pi/alat)
               b(1) = (  0.000000  1.000000 -0.134468 )  
               b(2) = (  0.791594 -0.000000  0.000000 )  
               b(3) = (  0.000000  0.000000 -0.761235 )  


     PseudoPot. # 1 for B  read from file:
     /mnt/d/DeepESense/pseudo/SSSP_1.3.0_PBE_efficiency/b_pbe_v1.4.uspp.F.UPF
     MD5 check sum: cc6de2960df11db49a60e589f9ebb39b
     Pseudo is Ultrasoft + core correction, Zval =  3.0
     Generated by new atomic code, or converted to UPF format
     Using radial grid of  781 points,  4 beta functions with: 
                l(1) =   0
                l(2) =   0
                l(3) =   1
                l(4) =   1
     Q(r) pseudized with  8 coefficients,  rinner =    1.100   1.100   1.100


     PseudoPot. # 2 for F  read from file:
     /mnt/d/DeepESense/pseudo/SSSP_1.3.0_PBE_efficiency/f_pbe_v1.4.uspp.F.UPF
     MD5 check sum: 4c38b6a325caf53ec0e86aed9459de46
     Pseudo is Ultrasoft, Zval =  7.0
     Generated by new atomic code, or converted to UPF format
     Using radial grid of  799 points,  4 beta functions with: 
                l(1) =   0
                l(2) =   0
                l(3) =   1
                l(4) =   1
     Q(r) pseudized with  8 coefficients,  rinner =    0.950   0.950   0.950


     PseudoPot. # 3 for O  read from file:
     /mnt/d/DeepESense/pseudo/SSSP_1.3.0_PBE_efficiency/O.pbe-n-kjpaw_psl.0.1.UPF
     MD5 check sum: 0234752ac141de4415c5fc33072bef88
     Pseudo is Projector augmented-wave + core cor, Zval =  6.0
     Generated using "atomic" code by A. Dal Corso  v.5.0.99 svn rev. 10869
     Shape of augmentation charge: BESSEL
     Using radial grid of 1095 points,  4 beta functions with: 
                l(1) =   0
                l(2) =   0
                l(3) =   1
                l(4) =   1
     Q(r) pseudized with 0 coefficients 


     atomic species   valence    mass     pseudopotential
     B                 3.00    10.81100     B ( 1.00)
     F                 7.00    18.99840     F ( 1.00)
     O                 6.00    15.99940     O ( 1.00)

      4 Sym. Ops., with inversion, found ( 2 have fractional translation)



   Cartesian axes

     site n.     atom                  positions (alat units)
         1        B      tau(   1) = (   0.8221995   0.2949005  -0.1173776  )
         2        B      tau(   2) = (   0.1905624   0.6167775  -0.5394495  )
         3        B      tau(   3) = (   0.4410747   0.5284554  -1.1962767  )
         4        B      tau(   4) = (   1.0727118   0.2065785  -0.7742048  )
         5        O      tau(   5) = (   1.0321960   0.9042730  -0.0155129  )
         6        O      tau(   6) = (   0.4005590   0.0074050  -0.6413142  )
         7        O      tau(   7) = (   0.2310781  -0.0809171  -1.2981414  )
         8        O      tau(   8) = (   0.8627152   0.8159510  -0.6723401  )
         9        O      tau(   9) = (   1.0380185   0.6402780  -1.1413002  )
        10        O      tau(  10) = (   0.4063814   0.0947559  -0.8291812  )
        11        O      tau(  11) = (   0.2252557   0.1830779  -0.1723541  )
        12        O      tau(  12) = (   0.8568928   0.7286000  -0.4844731  )
        13        F      tau(  13) = (   0.7376296   0.1958358  -0.2991440  )
        14        F      tau(  14) = (   0.1059925   0.7158422  -0.3576831  )
        15        F      tau(  15) = (   0.5256446   0.6275201  -1.0145103  )
        16        F      tau(  16) = (   1.1572817   0.1075138  -0.9559712  )
        17        F      tau(  17) = (   0.7084467   0.1102405  -1.2369553  )
        18        F      tau(  18) = (   0.0768096   0.6247934  -0.7335262  )
        19        F      tau(  19) = (   0.5548275   0.7131155  -0.0766990  )
        20        F      tau(  20) = (   1.1864646   0.1985625  -0.5801281  )
        21        F      tau(  21) = (   1.0162775   0.4050323  -0.1280064  )
        22        F      tau(  22) = (   0.3846405   0.5066457  -0.5288207  )
        23        F      tau(  23) = (   0.2469966   0.4183237  -1.1856479  )
        24        F      tau(  24) = (   0.8786337   0.3167102  -0.7848336  )

     number of k points=    33  Marzari-Vanderbilt smearing, width (Ry)=  0.0050
                       cart. coord. in units 2pi/alat
        k(    1) = (   0.0000000   0.0000000   0.0000000), wk =   0.0250000
        k(    2) = (   0.0000000   0.0000000  -0.1903088), wk =   0.0500000
        k(    3) = (   0.0000000   0.0000000   0.3806176), wk =   0.0250000
        k(    4) = (   0.1978985   0.0000000   0.0000000), wk =   0.0500000
        k(    5) = (   0.1978985   0.0000000  -0.1903088), wk =   0.1000000
        k(    6) = (   0.1978985   0.0000000   0.3806176), wk =   0.0500000
        k(    7) = (  -0.3957969   0.0000000  -0.0000000), wk =   0.0250000
        k(    8) = (  -0.3957969   0.0000000  -0.1903088), wk =   0.0500000
        k(    9) = (  -0.3957969   0.0000000   0.3806176), wk =   0.0250000
        k(   10) = (   0.0000000   0.2000000  -0.0268935), wk =   0.0500000
        k(   11) = (   0.0000000   0.2000000  -0.2172024), wk =   0.0500000
        k(   12) = (   0.0000000   0.2000000   0.3537241), wk =   0.0500000
        k(   13) = (   0.0000000   0.2000000   0.1634153), wk =   0.0500000
        k(   14) = (   0.1978985   0.2000000  -0.0268935), wk =   0.1000000
        k(   15) = (   0.1978985   0.2000000  -0.2172024), wk =   0.1000000
        k(   16) = (   0.1978985   0.2000000   0.3537241), wk =   0.1000000
        k(   17) = (   0.1978985   0.2000000   0.1634153), wk =   0.1000000
        k(   18) = (  -0.3957969   0.2000000  -0.0268935), wk =   0.0500000
        k(   19) = (  -0.3957969   0.2000000  -0.2172024), wk =   0.0500000
        k(   20) = (  -0.3957969   0.2000000   0.3537241), wk =   0.0500000
        k(   21) = (  -0.3957969   0.2000000   0.1634153), wk =   0.0500000
        k(   22) = (   0.0000000   0.4000000  -0.0537871), wk =   0.0500000
        k(   23) = (   0.0000000   0.4000000  -0.2440959), wk =   0.0500000
        k(   24) = (   0.0000000   0.4000000   0.3268306), wk =   0.0500000
        k(   25) = (   0.0000000   0.4000000   0.1365217), wk =   0.0500000
        k(   26) = (   0.1978985   0.4000000  -0.0537871), wk =   0.1000000
        k(   27) = (   0.1978985   0.4000000  -0.2440959), wk =   0.1000000
        k(   28) = (   0.1978985   0.4000000   0.3268306), wk =   0.1000000
        k(   29) = (   0.1978985   0.4000000   0.1365217), wk =   0.1000000
        k(   30) = (  -0.3957969   0.4000000  -0.0537871), wk =   0.0500000
        k(   31) = (  -0.3957969   0.4000000  -0.2440959), wk =   0.0500000
        k(   32) = (  -0.3957969   0.4000000   0.3268306), wk =   0.0500000
        k(   33) = (  -0.3957969   0.4000000   0.1365217), wk =   0.0500000

     Dense  grid:   406233 G-vectors     FFT dimensions: (  80, 100, 108)

     Smooth grid:   143741 G-vectors     FFT dimensions: (  60,  72,  80)

     Estimated max dynamical RAM per process >     252.30 MB

     Estimated total dynamical RAM >       1.97 GB

     Initial potential from superposition of free atoms

     starting charge     143.9989, renormalised to     144.0000
     Starting wfcs are   96 randomized atomic wfcs +   35 random wfcs
     Checking if some PAW data can be deallocated... 

     total cpu time spent up to now is       30.1 secs

     per-process dynamical memory:   213.4 Mb

     Self-consistent Calculation

     iteration #  1     ecut=    60.00 Ry     beta= 0.40
     Davidson diagonalization with overlap
     ethr =  1.00E-02,  avg # of iterations =  6.6

     total cpu time spent up to now is      154.7 secs

     total energy              =    -941.97159356 Ry
     estimated scf accuracy    <       1.49396250 Ry

     iteration #  2     ecut=    60.00 Ry     beta= 0.40
     Davidson diagonalization with overlap
     ethr =  1.04E-03,  avg # of iterations =  2.0

     total cpu time spent up to now is      219.6 secs

     total energy              =    -942.20622947 Ry
     estimated scf accuracy    <       0.15606738 Ry

     iteration #  3     ecut=    60.00 Ry     beta= 0.40
     Davidson diagonalization with overlap
     ethr =  1.08E-04,  avg # of iterations =  2.0

     total cpu time spent up to now is      279.9 secs

     total energy              =    -942.20951100 Ry
     estimated scf accuracy    <       0.07824313 Ry

     iteration #  4     ecut=    60.00 Ry     beta= 0.40
     Davidson diagonalization with overlap
     ethr =  5.43E-05,  avg # of iterations =  1.6

     total cpu time spent up to now is      335.8 secs

     total energy              =    -942.21579265 Ry
     estimated scf accuracy    <       0.02850998 Ry

     iteration #  5     ecut=    60.00 Ry     beta= 0.40
     Davidson diagonalization with overlap
     ethr =  1.98E-05,  avg # of iterations =  5.0

     total cpu time spent up to now is      420.1 secs

     total energy              =    -942.21767294 Ry
     estimated scf accuracy    <       0.00169278 Ry

     iteration #  6     ecut=    60.00 Ry     beta= 0.40
     Davidson diagonalization with overlap
     ethr =  1.18E-06,  avg # of iterations =  7.5

     total cpu time spent up to now is      534.1 secs

     total energy              =    -942.21779749 Ry
     estimated scf accuracy    <       0.00044202 Ry

     iteration #  7     ecut=    60.00 Ry     beta= 0.40
     Davidson diagonalization with overlap
     ethr =  3.07E-07,  avg # of iterations =  1.1

     total cpu time spent up to now is      587.2 secs

     total energy              =    -942.21784117 Ry
     estimated scf accuracy    <       0.00005106 Ry

     iteration #  8     ecut=    60.00 Ry     beta= 0.40
     Davidson diagonalization with overlap
     ethr =  3.55E-08,  avg # of iterations =  1.2

     total cpu time spent up to now is      648.2 secs

     total energy              =    -942.21784845 Ry
     estimated scf accuracy    <       0.00000517 Ry

     iteration #  9     ecut=    60.00 Ry     beta= 0.40
     Davidson diagonalization with overlap
     ethr =  3.59E-09,  avg # of iterations =  2.0

     total cpu time spent up to now is      714.9 secs

     total energy              =    -942.21784945 Ry
     estimated scf accuracy    <       0.00000079 Ry

     iteration # 10     ecut=    60.00 Ry     beta= 0.40
     Davidson diagonalization with overlap
     ethr =  5.46E-10,  avg # of iterations =  2.0

     total cpu time spent up to now is      781.9 secs

     total energy              =    -942.21784954 Ry
     estimated scf accuracy    <       0.00000007 Ry

     iteration # 11     ecut=    60.00 Ry     beta= 0.40
     Davidson diagonalization with overlap
     ethr =  4.57E-11,  avg # of iterations =  2.0

     total cpu time spent up to now is      847.7 secs

     End of self-consistent calculation

          k = 0.0000 0.0000 0.0000 ( 17955 PWs)   bands (ev):

   -25.8415 -25.8148 -25.7934 -25.7784 -25.3285 -25.2743 -25.2561 -25.2169
   -24.3303 -24.3093 -24.3050 -24.2906 -24.2647 -24.2628 -24.2563 -24.2355
   -13.5291 -13.5071 -13.3880 -13.3625  -8.1839  -8.1809  -8.1725  -8.0882
    -7.3279  -7.2670  -7.2484  -7.2321  -7.1729  -7.1607  -7.1151  -7.0870
    -6.9848  -6.9413  -6.8147  -6.7594  -6.6243  -6.4605  -6.4142  -6.3685
    -6.3157  -6.2672  -6.0351  -5.9959  -5.9758  -5.8036  -5.6254  -5.5520
    -4.7094  -4.7003  -4.5748  -4.4892  -4.4268  -4.3451  -4.3103  -4.2683
    -4.2081  -4.1715  -4.1500  -4.1336  -4.1051  -4.0912  -4.0747  -4.0524
    -3.3904  -3.3789  -3.2547  -3.2043   0.3851   0.4092   0.4907   0.5036
     0.5583   0.5800   0.6852   0.6976   5.8451   6.3681   6.3931   6.7528
     6.7762   7.4433   7.7236   8.6164   9.3111   9.5556   9.8003   9.9067
    10.1340  10.8203  10.9024  11.1239  11.6344  11.8057  12.0100  12.1588
    12.2526  12.3535  12.3814  12.4708  12.8766  13.0961  13.1813  13.5489
    13.6009  13.7702  13.8940  13.9463  14.1363  14.4251  14.4387  14.9901
    15.0448  15.1768  15.2357  15.3425  15.5084  15.7983  15.9747  16.1479
    16.1875  16.2146  16.2511  16.8314  16.9864  17.1320  17.4795  17.5485
    17.8057  17.9765  18.2254

          k = 0.0000 0.0000-0.1903 ( 17978 PWs)   bands (ev):

   -25.8374 -25.8185 -25.7913 -25.7807 -25.3216 -25.2835 -25.2501 -25.2221
   -24.3291 -24.3139 -24.2994 -24.2831 -24.2700 -24.2607 -24.2584 -24.2385
   -13.5090 -13.4865 -13.4092 -13.3842  -8.1966  -8.1879  -8.1339  -8.0792
    -7.3758  -7.3089  -7.2274  -7.2092  -7.1993  -7.1617  -7.1495  -7.0692
    -6.9678  -6.8933  -6.8577  -6.7905  -6.5675  -6.4622  -6.4121  -6.3323
    -6.3315  -6.2514  -6.0246  -6.0015  -5.9664  -5.8373  -5.6257  -5.5690
    -4.6544  -4.6508  -4.5730  -4.5051  -4.4286  -4.3672  -4.3023  -4.2681
    -4.2087  -4.1645  -4.1540  -4.1338  -4.1288  -4.0937  -4.0919  -4.0569
    -3.3754  -3.3584  -3.2780  -3.2336   0.3922   0.4352   0.4822   0.5118
     0.5415   0.5920   0.6591   0.6888   5.9479   6.3711   6.3929   6.6660
     6.7870   6.9598   8.2512   8.5964   9.3685   9.7066   9.8617  10.0696
    10.3502  10.3603  11.0294  11.3004  11.5244  11.5249  11.6049  12.2361
    12.2716  12.3219  12.6510  12.7565  12.8178  12.9111  12.9953  13.4015
    13.4356  13.8299  13.8585  13.9560  14.1539  14.3576  14.6434  14.6670
    14.8481  15.1413  15.2773  15.3550  15.8327  15.9067  15.9089  16.0129
    16.0213  16.3158  16.6193  16.7677  17.0787  17.2524  17.3516  17.5546
    17.9065  17.9188  18.4968

          k = 0.0000 0.0000 0.3806 ( 17956 PWs)   bands (ev):

   -25.8277 -25.8277 -25.7861 -25.7861 -25.3037 -25.3037 -25.2358 -25.2358
   -24.3231 -24.3231 -24.2849 -24.2849 -24.2702 -24.2702 -24.2478 -24.2478
   -13.4596 -13.4596 -13.4359 -13.4359  -8.1963  -8.1963  -8.0878  -8.0878
    -7.3801  -7.3801  -7.2323  -7.2323  -7.1776  -7.1776  -7.1004  -7.1004
    -6.9195  -6.9195  -6.8447  -6.8447  -6.4545  -6.4545  -6.4154  -6.4154
    -6.2651  -6.2651  -6.0109  -6.0109  -5.9103  -5.9103  -5.6064  -5.6064
    -4.5879  -4.5879  -4.5537  -4.5537  -4.4109  -4.4109  -4.2519  -4.2519
    -4.2358  -4.2358  -4.1535  -4.1535  -4.0957  -4.0957  -4.0877  -4.0877
    -3.3306  -3.3306  -3.3003  -3.3003   0.4318   0.4318   0.4806   0.4806
     0.5837   0.5837   0.6519   0.6519   6.2508   6.2508   6.3913   6.3913
     6.8194   6.8194   8.5333   8.5333   9.6640   9.6640  10.0104  10.0104
    10.5336  10.5336  11.0643  11.0643  11.4230  11.4230  11.5516  11.5516
    12.3077  12.3077  12.8365  12.8365  12.9041  12.9041  13.3182  13.3182
    13.5070  13.5070  13.7503  13.7503  14.3963  14.3963  14.5608  14.5608
    14.8718  14.8718  15.3324  15.3324  15.6969  15.6969  16.0132  16.0132
    16.3746  16.3746  16.6734  16.6734  17.1440  17.1440  17.5142  17.5142
    18.3287  18.3287  18.4869

          k = 0.1979 0.0000 0.0000 ( 17967 PWs)   bands (ev):

   -25.8364 -25.8165 -25.7931 -25.7814 -25.3242 -25.2909 -25.2426 -25.2198
   -24.3292 -24.3188 -24.2932 -24.2877 -24.2667 -24.2660 -24.2534 -24.2384
   -13.5263 -13.5108 -13.3839 -13.3659  -8.2033  -8.1953  -8.1398  -8.0901
    -7.3113  -7.2745  -7.2676  -7.2142  -7.1676  -7.1555  -7.1310  -7.0888
    -6.9844  -6.9514  -6.8081  -6.7973  -6.5970  -6.5168  -6.3995  -6.3567
    -6.2610  -6.2453  -6.0285  -5.9986  -5.9382  -5.8182  -5.6376  -5.5887
    -4.7062  -4.7020  -4.5602  -4.4894  -4.4315  -4.3657  -4.3009  -4.2773
    -4.2076  -4.1672  -4.1495  -4.1350  -4.1088  -4.1063  -4.0670  -4.0495
    -3.3904  -3.3827  -3.2481  -3.2122   0.3892   0.4061   0.4882   0.4953
     0.5691   0.5828   0.6876   0.6963   6.0351   6.3723   6.3861   6.7280
     6.7918   7.2726   7.8211   8.2318   9.3101   9.7196   9.7579   9.9598
    10.0585  10.7025  10.9993  11.3144  11.7005  11.7037  12.0252  12.2587
    12.2939  12.3663  12.4388  12.5729  12.9037  12.9618  13.2818  13.3581
    13.6416  13.9387  14.0124  14.1179  14.1247  14.3861  14.4365  14.6773
    14.7842  15.2455  15.3471  15.4551  15.5954  15.8540  15.8686  15.8972
    16.0411  16.1914  16.3937  16.7558  16.9759  17.0201  17.4034  17.6801
    17.8516  17.9326  18.3580

          k = 0.1979 0.0000-0.1903 ( 17967 PWs)   bands (ev):

   -25.8329 -25.8184 -25.7923 -25.7836 -25.3181 -25.2928 -25.2432 -25.2250
   -24.3272 -24.3166 -24.2960 -24.2822 -24.2712 -24.2611 -24.2565 -24.2412
   -13.5061 -13.4904 -13.4050 -13.3875  -8.2025  -8.1911  -8.1220  -8.0824
    -7.3687  -7.3231  -7.2295  -7.2011  -7.1950  -7.1700  -7.1356  -7.0823
    -6.9693  -6.9195  -6.8484  -6.8207  -6.5449  -6.4734  -6.4052  -6.3688
    -6.2425  -6.2265  -6.0203  -6.0044  -5.9356  -5.8453  -5.6426  -5.6037
    -4.6636  -4.6546  -4.5651  -4.5109  -4.4307  -4.3825  -4.2958  -4.2636
    -4.2052  -4.1618  -4.1507  -4.1383  -4.1284  -4.0977  -4.0884  -4.0638
    -3.3749  -3.3634  -3.2716  -3.2403   0.3975   0.4273   0.4846   0.5025
     0.5566   0.5888   0.6642   0.6855   6.1225   6.3752   6.3893   6.6536
     6.8081   7.0296   7.8932   8.2657   9.4807   9.8139   9.9290  10.0302
    10.3588  10.6084  11.0167  11.3065  11.4405  11.5999  11.7264  12.0095
    12.2807  12.3429  12.6699  12.7437  12.8205  12.8730  13.2453  13.4446
    13.5499  13.5608  13.9764  14.0894  14.1599  14.3708  14.4234  14.8401
    15.0420  15.0952  15.2535  15.4920  15.6082  15.6450  15.8696  15.9481
    16.0462  16.4384  16.5986  16.7472  16.9531  17.0584  17.3644  17.4302
    17.7844  18.1671  18.4831

          k = 0.1979 0.0000 0.3806 ( 17984 PWs)   bands (ev):

   -25.8249 -25.8249 -25.7886 -25.7886 -25.3038 -25.3038 -25.2366 -25.2366
   -24.3206 -24.3206 -24.2890 -24.2890 -24.2656 -24.2656 -24.2501 -24.2501
   -13.4585 -13.4585 -13.4371 -13.4371  -8.1949  -8.1949  -8.0882  -8.0882
    -7.3841  -7.3841  -7.2338  -7.2338  -7.1685  -7.1685  -7.1087  -7.1087
    -6.9331  -6.9331  -6.8573  -6.8573  -6.4468  -6.4468  -6.4068  -6.4068
    -6.2240  -6.2240  -6.0105  -6.0105  -5.9002  -5.9002  -5.6340  -5.6340
    -4.5965  -4.5965  -4.5682  -4.5682  -4.4150  -4.4150  -4.2392  -4.2392
    -4.2219  -4.2219  -4.1537  -4.1537  -4.1032  -4.1032  -4.0920  -4.0920
    -3.3332  -3.3332  -3.2999  -3.2999   0.4325   0.4325   0.4789   0.4789
     0.5895   0.5895   0.6488   0.6488   6.3535   6.3535   6.4078   6.4078
     6.8551   6.8551   8.0802   8.0802   9.8829   9.8829  10.0892  10.0892
    10.6172  10.6172  11.1192  11.1192  11.3658  11.3658  11.6251  11.6251
    12.1598  12.1598  12.6959  12.6959  12.8941  12.8941  13.3234  13.3234
    13.6846  13.6846  13.8982  13.8982  14.2076  14.2076  14.6780  14.6780
    15.0865  15.0865  15.4636  15.4636  15.5785  15.5785  15.9001  15.9001
    16.0866  16.0866  16.6559  16.6559  17.1233  17.1233  17.6163  17.6163
    17.9660  17.9660  18.3937

          k =-0.3958 0.0000-0.0000 ( 17986 PWs)   bands (ev):

   -25.8251 -25.8251 -25.7882 -25.7882 -25.3112 -25.3112 -25.2285 -25.2285
   -24.3258 -24.3258 -24.2837 -24.2837 -24.2711 -24.2711 -24.2456 -24.2456
   -13.5190 -13.5190 -13.3745 -13.3745  -8.2090  -8.2090  -8.1067  -8.1067
    -7.2918  -7.2918  -7.2358  -7.2358  -7.1705  -7.1705  -7.1099  -7.1099
    -6.9715  -6.9715  -6.8078  -6.8078  -6.5701  -6.5701  -6.3740  -6.3740
    -6.2209  -6.2209  -5.9920  -5.9920  -5.8793  -5.8793  -5.6393  -5.6393
    -4.7025  -4.7025  -4.5219  -4.5219  -4.4088  -4.4088  -4.2915  -4.2915
    -4.1844  -4.1844  -4.1348  -4.1348  -4.1193  -4.1193  -4.0555  -4.0555
    -3.3885  -3.3885  -3.2308  -3.2308   0.3983   0.3983   0.4871   0.4871
     0.5819   0.5819   0.6925   0.6925   6.3663   6.3663   6.5137   6.5137
     6.8793   6.8793   8.0244   8.0244   9.2951   9.2951   9.9101   9.9101
    10.4653  10.4653  11.2810  11.2810  11.8122  11.8122  11.9566  11.9566
    12.3410  12.3410  12.6799  12.6799  12.9559  12.9559  13.2949  13.2949
    13.7936  13.7936  14.1374  14.1374  14.3783  14.3783  14.4680  14.4680
    14.8711  14.8711  15.3259  15.3259  15.7430  15.7430  15.8627  15.8627
    16.0580  16.0580  16.7158  16.7158  16.9254  16.9254  17.4515  17.4515
    17.7585  17.7585  18.1888

          k =-0.3958 0.0000-0.1903 ( 17944 PWs)   bands (ev):

   -25.8234 -25.8234 -25.7898 -25.7898 -25.3078 -25.3078 -25.2327 -25.2327
   -24.3224 -24.3224 -24.2875 -24.2875 -24.2674 -24.2674 -24.2483 -24.2483
   -13.4988 -13.4988 -13.3958 -13.3958  -8.2014  -8.2014  -8.0979  -8.0979
    -7.3470  -7.3470  -7.2184  -7.2184  -7.1813  -7.1813  -7.1115  -7.1115
    -6.9534  -6.9534  -6.8401  -6.8401  -6.5129  -6.5129  -6.3836  -6.3836
    -6.1970  -6.1970  -5.9924  -5.9924  -5.8905  -5.8905  -5.6522  -5.6522
    -4.6638  -4.6638  -4.5413  -4.5413  -4.4136  -4.4136  -4.2758  -4.2758
    -4.1832  -4.1832  -4.1389  -4.1389  -4.1163  -4.1163  -4.0772  -4.0772
    -3.3714  -3.3714  -3.2560  -3.2560   0.4113   0.4113   0.4915   0.4915
     0.5771   0.5771   0.6757   0.6757   6.3732   6.3732   6.5125   6.5125
     6.9176   6.9176   7.8135   7.8135   9.6541   9.6541  10.0103  10.0103
    10.5693  10.5693  11.1728  11.1728  11.5129  11.5129  12.1185  12.1185
    12.2320  12.2320  12.5634  12.5634  12.7528  12.7528  13.4566  13.4566
    13.7270  13.7270  13.9185  13.9185  14.3962  14.3962  14.7534  14.7534
    14.8560  14.8560  15.3644  15.3644  15.5607  15.5607  16.0215  16.0215
    16.1065  16.1065  16.6915  16.6915  16.8810  16.8810  17.3765  17.3765
    17.8971  17.8972  18.2793

          k =-0.3958 0.0000 0.3806 ( 17972 PWs)   bands (ev):

   -25.8215 -25.8215 -25.7916 -25.7916 -25.3039 -25.3039 -25.2374 -25.2374
   -24.3178 -24.3178 -24.2928 -24.2928 -24.2600 -24.2600 -24.2542 -24.2542
   -13.4573 -13.4573 -13.4384 -13.4384  -8.1935  -8.1935  -8.0886  -8.0886
    -7.3861  -7.3861  -7.2345  -7.2345  -7.1643  -7.1643  -7.1199  -7.1199
    -6.9415  -6.9415  -6.8646  -6.8646  -6.4471  -6.4471  -6.3999  -6.3999
    -6.1813  -6.1813  -5.9953  -5.9953  -5.8966  -5.8966  -5.6675  -5.6675
    -4.6018  -4.6018  -4.5845  -4.5845  -4.4192  -4.4192  -4.2230  -4.2230
    -4.2123  -4.2123  -4.1548  -4.1548  -4.1093  -4.1093  -4.0972  -4.0972
    -3.3358  -3.3358  -3.2995  -3.2995   0.4333   0.4333   0.4771   0.4771
     0.5962   0.5962   0.6448   0.6448   6.3816   6.3816   6.5099   6.5099
     6.9669   6.9669   7.6379   7.6379  10.0264  10.0264  10.1228  10.1228
    10.7133  10.7133  11.0624  11.0624  11.3803  11.3803  11.7123  11.7123
    12.2349  12.2349  12.6030  12.6030  12.8144  12.8144  13.0694  13.0694
    13.7919  13.7919  14.0650  14.0650  14.4861  14.4861  14.6088  14.6088
    15.1636  15.1636  15.3149  15.3149  15.6993  15.6993  15.7743  15.7743
    16.2222  16.2222  16.3331  16.3331  17.0813  17.0813  17.2948  17.2948
    18.1226  18.1226  18.3444

          k = 0.0000 0.2000-0.0269 ( 17960 PWs)   bands (ev):

   -25.8377 -25.8139 -25.7929 -25.7783 -25.3305 -25.2718 -25.2594 -25.2200
   -24.3324 -24.3108 -24.3045 -24.2892 -24.2664 -24.2632 -24.2533 -24.2348
   -13.5314 -13.5102 -13.3858 -13.3605  -8.1943  -8.1893  -8.1755  -8.0602
    -7.3191  -7.2895  -7.2306  -7.2195  -7.1996  -7.1680  -7.1249  -7.0934
    -7.0304  -6.9548  -6.7801  -6.7178  -6.5171  -6.4597  -6.3688  -6.3319
    -6.3274  -6.2638  -6.0857  -6.0038  -5.9551  -5.8323  -5.6901  -5.5989
    -4.6932  -4.6818  -4.5799  -4.4755  -4.4401  -4.3546  -4.3181  -4.2518
    -4.2115  -4.2093  -4.1419  -4.1245  -4.1038  -4.0913  -4.0802  -4.0555
    -3.4026  -3.3674  -3.2503  -3.2078   0.3821   0.4091   0.4895   0.5014
     0.5628   0.5775   0.6731   0.6873   5.9843   6.3230   6.4212   6.7235
     6.8093   7.6907   7.9551   8.2098   9.3545   9.6502   9.7576   9.8751
    10.1863  10.5799  10.8262  11.2061  11.2631  11.4666  11.6315  11.8270
    12.0626  12.3283  12.3843  12.7925  12.9493  13.3010  13.5023  13.5237
    13.5881  13.8890  14.0163  14.1967  14.1967  14.6018  14.7105  15.0134
    15.0330  15.1731  15.3085  15.6275  15.7946  15.8582  15.9399  16.0278
    16.1955  16.3001  16.3869  16.7634  16.8461  17.1150  17.2006  17.2644
    17.8908  17.9365  18.3410

          k = 0.0000 0.2000-0.2172 ( 17932 PWs)   bands (ev):

   -25.8334 -25.8178 -25.7909 -25.7805 -25.3224 -25.2823 -25.2545 -25.2240
   -24.3289 -24.3166 -24.3026 -24.2802 -24.2700 -24.2585 -24.2579 -24.2387
   -13.5127 -13.4913 -13.4053 -13.3805  -8.2084  -8.1898  -8.1469  -8.0471
    -7.3437  -7.3422  -7.2715  -7.2191  -7.2115  -7.1393  -7.1352  -7.0857
    -6.9907  -6.9464  -6.7895  -6.7290  -6.4685  -6.4354  -6.3744  -6.3706
    -6.2651  -6.2601  -6.0803  -6.0037  -5.9587  -5.8590  -5.7011  -5.6209
    -4.6553  -4.6334  -4.5790  -4.4944  -4.4308  -4.3656  -4.3156  -4.2690
    -4.2306  -4.1847  -4.1655  -4.1223  -4.1002  -4.0974  -4.0844  -4.0550
    -3.3932  -3.3473  -3.2643  -3.2423   0.3978   0.4410   0.4786   0.5108
     0.5333   0.5937   0.6449   0.6768   6.0337   6.3038   6.4465   6.6409
     6.8238   7.2634   8.1390   8.5619   9.4451   9.7026   9.9602  10.1065
    10.2831  10.6350  10.6950  10.7329  11.0160  11.2454  11.8365  11.8939
    12.0037  12.5339  12.5830  12.7446  12.9015  13.2354  13.4140  13.4609
    13.5261  13.6650  13.6979  14.0043  14.2811  14.5288  14.7351  14.9318
    15.0658  15.4181  15.5453  15.5624  15.6102  15.7749  15.8876  16.0513
    16.0624  16.4826  16.6437  16.7935  16.8399  17.1622  17.4079  17.4913
    17.6965  18.0623  18.3411

          k = 0.0000 0.2000 0.3537 ( 17966 PWs)   bands (ev):

   -25.8264 -25.8245 -25.7857 -25.7857 -25.3040 -25.3025 -25.2408 -25.2374
   -24.3259 -24.3221 -24.2882 -24.2813 -24.2725 -24.2697 -24.2465 -24.2456
   -13.4631 -13.4568 -13.4397 -13.4329  -8.2073  -8.1740  -8.1081  -8.0739
    -7.4124  -7.3368  -7.2685  -7.2532  -7.2048  -7.1206  -7.1111  -7.0762
    -6.9353  -6.8802  -6.8417  -6.8189  -6.5132  -6.4479  -6.3980  -6.3216
    -6.3028  -6.2189  -6.0453  -6.0158  -5.9049  -5.9021  -5.6621  -5.6441
    -4.5929  -4.5923  -4.5423  -4.5384  -4.4209  -4.4145  -4.2626  -4.2430
    -4.2430  -4.2297  -4.1553  -4.1450  -4.1260  -4.1048  -4.0765  -4.0724
    -3.3469  -3.3150  -3.3100  -3.2930   0.4187   0.4289   0.4624   0.4815
     0.5793   0.5863   0.6505   0.6580   6.3219   6.3528   6.4491   6.4677
     6.8313   6.9148   8.2582   8.7746   9.4546   9.5848   9.8365   9.8969
    10.2237  10.3063  11.0705  11.0868  11.3551  11.5171  11.6818  11.8910
    12.0802  12.1416  12.7445  12.7589  12.9031  12.9401  13.2618  13.5192
    13.6079  13.7771  14.0152  14.0538  14.2762  14.3072  14.4305  14.6766
    14.7976  15.2884  15.3035  15.4751  15.5184  15.8442  16.0898  16.2080
    16.2142  16.4352  16.4763  16.5749  17.1604  17.1782  17.3771  17.7956
    18.0955  18.1794  18.4145

          k = 0.0000 0.2000 0.1634 ( 17953 PWs)   bands (ev):

   -25.8348 -25.8166 -25.7907 -25.7805 -25.3233 -25.2808 -25.2523 -25.2268
   -24.3320 -24.3138 -24.2954 -24.2860 -24.2720 -24.2612 -24.2574 -24.2356
   -13.5087 -13.4862 -13.4102 -13.3852  -8.2008  -8.1725  -8.1326  -8.0856
    -7.3814  -7.3026  -7.2645  -7.2089  -7.1843  -7.1574  -7.1231  -7.0610
    -6.9541  -6.9081  -6.8593  -6.7829  -6.5539  -6.4606  -6.3768  -6.3433
    -6.3261  -6.2284  -6.0472  -6.0194  -5.9280  -5.8504  -5.6646  -5.6095
    -4.6454  -4.6283  -4.5794  -4.4886  -4.4466  -4.3829  -4.2967  -4.2469
    -4.2062  -4.1934  -4.1430  -4.1320  -4.1262  -4.1103  -4.1017  -4.0606
    -3.3758  -3.3537  -3.2855  -3.2315   0.3753   0.4199   0.4766   0.5160
     0.5365   0.5984   0.6552   0.6938   6.1771   6.3701   6.3702   6.7618
     6.8146   7.0378   8.2823   8.4876   9.3625   9.5206   9.5877   9.8561
    10.0100  10.5761  11.0308  11.1563  11.4455  11.6448  11.7820  12.0418
    12.2498  12.3349  12.3551  12.7304  12.8866  13.0616  13.2855  13.3793
    13.6504  13.7112  13.9078  14.2668  14.3611  14.5237  14.6205  14.8270
    14.9177  15.2110  15.3488  15.4805  15.6356  15.8543  15.8641  16.0894
    16.1680  16.2634  16.4110  16.4285  17.1437  17.3260  17.3828  17.6776
    17.9699  17.9722  18.2489

          k = 0.1979 0.2000-0.0269 ( 17952 PWs)   bands (ev):

   -25.8333 -25.8156 -25.7922 -25.7810 -25.3256 -25.2899 -25.2450 -25.2230
   -24.3312 -24.3194 -24.2955 -24.2864 -24.2673 -24.2640 -24.2520 -24.2379
   -13.5286 -13.5138 -13.3817 -13.3639  -8.2145  -8.2016  -8.1386  -8.0655
    -7.3217  -7.2870  -7.2540  -7.2135  -7.1827  -7.1668  -7.1198  -7.1018
    -7.0237  -6.9695  -6.7744  -6.7329  -6.5131  -6.4781  -6.3865  -6.3566
    -6.2751  -6.2310  -6.0611  -5.9900  -5.9362  -5.8539  -5.6984  -5.6221
    -4.6914  -4.6839  -4.5683  -4.4907  -4.4309  -4.3711  -4.3098  -4.2628
    -4.2164  -4.1860  -4.1565  -4.1258  -4.1152  -4.0905  -4.0743  -4.0539
    -3.3985  -3.3739  -3.2453  -3.2150   0.3861   0.4052   0.4862   0.4955
     0.5709   0.5806   0.6755   0.6855   6.1600   6.3425   6.4034   6.7181
     6.8159   7.4153   8.0424   8.2176   9.2340   9.5051   9.6009   9.9416
    10.4306  10.5099  10.8362  11.1291  11.2373  11.4919  11.6468  11.9878
    12.1766  12.4186  12.6120  12.8806  12.9312  13.2507  13.3232  13.4652
    13.7217  13.8854  13.9682  14.2803  14.3235  14.6209  14.6961  14.9525
    15.0748  15.2759  15.3283  15.4284  15.6104  15.6478  15.9223  16.0348
    16.1003  16.3466  16.3914  16.6586  16.9340  17.0999  17.2852  17.3583
    17.7498  18.0595  18.1556

          k = 0.1979 0.2000-0.2172 ( 17957 PWs)   bands (ev):

   -25.8295 -25.8177 -25.7914 -25.7832 -25.3185 -25.2918 -25.2473 -25.2275
   -24.3275 -24.3189 -24.2990 -24.2821 -24.2679 -24.2591 -24.2561 -24.2417
   -13.5100 -13.4950 -13.4012 -13.3838  -8.2170  -8.1904  -8.1292  -8.0533
    -7.3620  -7.3386  -7.2740  -7.2341  -7.1747  -7.1444  -7.1280  -7.0997
    -6.9934  -6.9705  -6.7801  -6.7377  -6.4785  -6.4420  -6.3805  -6.3526
    -6.2592  -6.2054  -6.0610  -5.9906  -5.9464  -5.8788  -5.7126  -5.6421
    -4.6587  -4.6395  -4.5770  -4.5178  -4.4220  -4.3776  -4.3045  -4.2604
    -4.2264  -4.1767  -4.1670  -4.1279  -4.1044  -4.1005  -4.0834  -4.0597
    -3.3874  -3.3554  -3.2620  -3.2462   0.4028   0.4328   0.4808   0.4993
     0.5509   0.5885   0.6506   0.6730   6.1968   6.3343   6.4151   6.6586
     6.8254   7.2656   7.8726   8.4664   9.4142   9.5864  10.0560  10.0963
    10.2752  10.4570  10.7355  10.9950  11.1143  11.4047  11.7727  11.8701
    12.1602  12.4173  12.6000  12.7088  13.0860  13.1195  13.2248  13.3781
    13.4702  13.8841  14.0411  14.0584  14.2886  14.5677  14.8173  14.9549
    15.0014  15.2594  15.4300  15.5396  15.6779  15.8161  15.8721  16.0185
    16.0876  16.3438  16.4451  16.6309  16.7933  17.0169  17.3734  17.6756
    17.8879  18.1338  18.2275

          k = 0.1979 0.2000 0.3537 ( 17945 PWs)   bands (ev):

   -25.8239 -25.8222 -25.7883 -25.7873 -25.3040 -25.3017 -25.2420 -25.2389
   -24.3235 -24.3206 -24.2915 -24.2868 -24.2682 -24.2632 -24.2496 -24.2474
   -13.4615 -13.4567 -13.4398 -13.4346  -8.2090  -8.1819  -8.1004  -8.0700
    -7.4027  -7.3578  -7.2907  -7.2488  -7.1723  -7.1201  -7.1120  -7.0872
    -6.9522  -6.9123  -6.8251  -6.8084  -6.5150  -6.4156  -6.4027  -6.3767
    -6.2524  -6.1837  -6.0328  -5.9983  -5.9096  -5.8962  -5.6995  -5.6472
    -4.6137  -4.5915  -4.5613  -4.5459  -4.4177  -4.4143  -4.2482  -4.2426
    -4.2237  -4.2209  -4.1627  -4.1471  -4.1279  -4.1128  -4.0766  -4.0748
    -3.3443  -3.3207  -3.3088  -3.2946   0.4196   0.4267   0.4651   0.4781
     0.5858   0.5919   0.6463   0.6535   6.3332   6.3993   6.5164   6.5528
     6.8431   6.9809   7.9769   8.3164   9.3874   9.7825   9.8117  10.1138
    10.2014  10.4822  10.8953  11.2039  11.3796  11.5827  11.7715  11.9313
    12.0740  12.2978  12.3984  12.6801  12.8359  13.1159  13.3914  13.4960
    13.5605  13.7834  14.0711  14.1407  14.2981  14.4688  14.6294  14.6591
    14.7276  15.1142  15.2657  15.3456  15.6344  15.9111  15.9765  16.0703
    16.2584  16.3284  16.3985  16.6389  17.0061  17.2842  17.4001  17.5358
    17.9815  18.1186  18.2682

          k = 0.1979 0.2000 0.1634 ( 17944 PWs)   bands (ev):

   -25.8307 -25.8170 -25.7912 -25.7830 -25.3191 -25.2908 -25.2458 -25.2293
   -24.3299 -24.3172 -24.2929 -24.2853 -24.2717 -24.2606 -24.2562 -24.2386
   -13.5059 -13.4902 -13.4060 -13.3885  -8.2069  -8.1921  -8.1110  -8.0827
    -7.3653  -7.3108  -7.2883  -7.2195  -7.1729  -7.1514  -7.1102  -7.0703
    -6.9530  -6.9144  -6.8516  -6.7968  -6.5476  -6.4573  -6.4069  -6.3741
    -6.2688  -6.2048  -6.0326  -5.9989  -5.9117  -5.8622  -5.6874  -5.6247
    -4.6500  -4.6467  -4.5577  -4.5005  -4.4388  -4.3939  -4.2892  -4.2565
    -4.1977  -4.1912  -4.1555  -4.1355  -4.1283  -4.1124  -4.0874  -4.0630
    -3.3746  -3.3591  -3.2774  -3.2395   0.3801   0.4107   0.4816   0.5050
     0.5537   0.5927   0.6612   0.6889   6.3350   6.3688   6.3779   6.7446
     6.8377   7.1073   7.9995   8.2760   9.1956   9.4597   9.7668   9.8792
    10.3279  10.4433  11.1500  11.2237  11.2935  11.5153  11.7490  11.9257
    12.3018  12.5725  12.7227  12.7906  12.9524  13.1214  13.2263  13.3606
    13.6279  13.7986  13.9480  14.1092  14.2824  14.5019  14.6788  14.7553
    14.9290  15.0970  15.3165  15.4934  15.5504  15.5739  16.0092  16.1551
    16.2156  16.3318  16.4811  16.5234  16.8631  17.3227  17.4746  17.5747
    17.6993  17.9717  18.0949

          k =-0.3958 0.2000-0.0269 ( 17954 PWs)   bands (ev):

   -25.8233 -25.8233 -25.7873 -25.7873 -25.3112 -25.3112 -25.2314 -25.2314
   -24.3272 -24.3272 -24.2866 -24.2866 -24.2672 -24.2672 -24.2454 -24.2454
   -13.5216 -13.5216 -13.3724 -13.3724  -8.2179  -8.2179  -8.0927  -8.0927
    -7.2979  -7.2979  -7.2571  -7.2571  -7.1534  -7.1534  -7.1173  -7.1173
    -7.0002  -7.0002  -6.7565  -6.7565  -6.5044  -6.5044  -6.3757  -6.3757
    -6.2320  -6.2320  -5.9968  -5.9968  -5.9012  -5.9012  -5.6762  -5.6762
    -4.6866  -4.6866  -4.5344  -4.5344  -4.4036  -4.4036  -4.2880  -4.2880
    -4.1904  -4.1904  -4.1563  -4.1563  -4.0995  -4.0995  -4.0621  -4.0621
    -3.3874  -3.3874  -3.2312  -3.2312   0.3958   0.3958   0.4867   0.4867
     0.5808   0.5808   0.6807   0.6807   6.3561   6.3561   6.5968   6.5968
     6.9166   6.9166   8.2100   8.2100   9.2703   9.2703   9.6470   9.6470
    10.4742  10.4742  11.0568  11.0568  11.5165  11.5165  11.8128  11.8128
    12.2217  12.2217  12.9341  12.9341  13.0978  13.0978  13.4385  13.4385
    13.8079  13.8079  14.2468  14.2468  14.3662  14.3662  14.8179  14.8179
    14.9632  14.9632  15.3310  15.3310  15.7329  15.7329  16.0535  16.0535
    16.1470  16.1470  16.5410  16.5410  16.8600  16.8600  17.4044  17.4044
    17.7291  17.7291  18.0700

          k =-0.3958 0.2000-0.2172 ( 17972 PWs)   bands (ev):

   -25.8217 -25.8217 -25.7889 -25.7889 -25.3072 -25.3072 -25.2362 -25.2362
   -24.3237 -24.3237 -24.2900 -24.2900 -24.2628 -24.2628 -24.2491 -24.2491
   -13.5030 -13.5030 -13.3921 -13.3921  -8.2101  -8.2101  -8.0838  -8.0838
    -7.3560  -7.3560  -7.2583  -7.2583  -7.1494  -7.1494  -7.1194  -7.1194
    -6.9924  -6.9924  -6.7585  -6.7585  -6.4673  -6.4673  -6.3658  -6.3658
    -6.2039  -6.2039  -5.9987  -5.9987  -5.9223  -5.9223  -5.6940  -5.6940
    -4.6534  -4.6534  -4.5586  -4.5586  -4.4007  -4.4007  -4.2739  -4.2739
    -4.2041  -4.2041  -4.1453  -4.1453  -4.1013  -4.1013  -4.0749  -4.0749
    -3.3726  -3.3726  -3.2549  -3.2549   0.4163   0.4163   0.4874   0.4874
     0.5736   0.5736   0.6627   0.6627   6.3527   6.3527   6.5880   6.5880
     6.9335   6.9335   8.0339   8.0339   9.6661   9.6661   9.8299   9.8299
    10.3432  10.3432  10.8738  10.8738  11.6362  11.6362  11.8624  11.8624
    12.1210  12.1210  12.5837  12.5837  13.1538  13.1538  13.3667  13.3667
    13.6858  13.6858  13.9961  13.9961  14.6536  14.6536  14.8029  14.8029
    15.1740  15.1740  15.5034  15.5034  15.6622  15.6622  15.9768  15.9768
    16.0559  16.0559  16.4434  16.4434  16.9068  16.9068  17.2643  17.2643
    18.1132  18.1132  18.4076

          k =-0.3958 0.2000 0.3537 ( 17966 PWs)   bands (ev):

   -25.8203 -25.8203 -25.7901 -25.7901 -25.3025 -25.3025 -25.2418 -25.2418
   -24.3198 -24.3198 -24.2928 -24.2928 -24.2599 -24.2599 -24.2524 -24.2524
   -13.4583 -13.4583 -13.4381 -13.4381  -8.2008  -8.2008  -8.0788  -8.0788
    -7.3838  -7.3838  -7.2789  -7.2789  -7.1283  -7.1283  -7.1120  -7.1120
    -6.9470  -6.9470  -6.8095  -6.8095  -6.4721  -6.4721  -6.3861  -6.3861
    -6.1918  -6.1918  -5.9883  -5.9883  -5.9110  -5.9110  -5.6926  -5.6926
    -4.6138  -4.6138  -4.5643  -4.5643  -4.4161  -4.4161  -4.2272  -4.2272
    -4.2182  -4.2182  -4.1595  -4.1595  -4.1255  -4.1255  -4.0773  -4.0773
    -3.3352  -3.3352  -3.3010  -3.3010   0.4227   0.4227   0.4710   0.4710
     0.5957   0.5957   0.6447   0.6447   6.3686   6.3686   6.6387   6.6387
     7.0084   7.0084   7.7752   7.7752   9.5932   9.5932  10.0455  10.0455
    10.3114  10.3114  11.0468  11.0468  11.6619  11.6619  11.9509  11.9509
    12.0981  12.0981  12.5729  12.5729  12.9315  12.9315  13.3227  13.3227
    13.7286  13.7286  14.1812  14.1812  14.4804  14.4804  14.6493  14.6493
    14.9181  14.9181  15.4459  15.4459  15.5932  15.5932  15.9288  15.9288
    16.2432  16.2432  16.5448  16.5448  16.9339  16.9339  17.5570  17.5570
    18.0587  18.0587  18.3858

          k =-0.3958 0.2000 0.1634 ( 17952 PWs)   bands (ev):

   -25.8220 -25.8220 -25.7885 -25.7885 -25.3071 -25.3071 -25.2363 -25.2363
   -24.3242 -24.3242 -24.2875 -24.2875 -24.2675 -24.2675 -24.2465 -24.2465
   -13.4986 -13.4986 -13.3968 -13.3968  -8.2088  -8.2088  -8.0880  -8.0880
    -7.3361  -7.3361  -7.2704  -7.2704  -7.1500  -7.1500  -7.0928  -7.0928
    -6.9353  -6.9353  -6.8254  -6.8254  -6.5115  -6.5115  -6.3910  -6.3910
    -6.2174  -6.2174  -5.9876  -5.9876  -5.8923  -5.8923  -5.6740  -5.6740
    -4.6542  -4.6542  -4.5311  -4.5311  -4.4192  -4.4192  -4.2733  -4.2733
    -4.1778  -4.1778  -4.1623  -4.1623  -4.1204  -4.1204  -4.0719  -4.0719
    -3.3690  -3.3690  -3.2585  -3.2585   0.3935   0.3935   0.4921   0.4921
     0.5768   0.5768   0.6756   0.6756   6.3726   6.3726   6.6459   6.6459
     6.9847   6.9847   7.9036   7.9036   9.3311   9.3311   9.8116   9.8116
    10.4668  10.4668  11.0026  11.0026  11.6070  11.6070  12.0102  12.0102
    12.2372  12.2372  12.8793  12.8793  13.0756  13.0756  13.3943  13.3943
    13.7760  13.7760  14.0640  14.0640  14.3424  14.3424  14.6659  14.6659
    14.8742  14.8742  15.1365  15.1365  15.6815  15.6815  16.0849  16.0849
    16.4013  16.4013  16.6531  16.6531  17.0114  17.0114  17.3483  17.3483
    17.7893  17.7893  18.0518

          k = 0.0000 0.4000-0.0538 ( 17948 PWs)   bands (ev):

   -25.8313 -25.8125 -25.7923 -25.7780 -25.3338 -25.2668 -25.2645 -25.2261
   -24.3358 -24.3131 -24.3018 -24.2896 -24.2693 -24.2632 -24.2479 -24.2346
   -13.5350 -13.5152 -13.3821 -13.3572  -8.2077  -8.1959  -8.1825  -8.0229
    -7.3115  -7.3022  -7.2543  -7.2012  -7.1886  -7.1854  -7.1455  -7.1195
    -7.0420  -6.9947  -6.7164  -6.6560  -6.4344  -6.3813  -6.3522  -6.3065
    -6.2526  -6.2022  -6.1631  -6.0270  -5.9262  -5.8880  -5.8318  -5.7005
    -4.6600  -4.6541  -4.5887  -4.4634  -4.4564  -4.3572  -4.3269  -4.2620
    -4.2288  -4.1953  -4.1498  -4.1325  -4.1252  -4.0903  -4.0700  -4.0560
    -3.4144  -3.3564  -3.2416  -3.2146   0.3823   0.4052   0.4880   0.4980
     0.5677   0.5738   0.6554   0.6693   6.2649   6.3210   6.4617   6.7030
     6.8940   7.5302   8.2474   8.4627   9.0643   9.5867   9.7123   9.9219
    10.2766  10.2916  10.7151  10.8928  11.0267  11.1032  11.4921  11.5115
    11.8760  12.0989  12.2229  12.6109  13.2117  13.4196  13.7220  13.7463
    13.8252  14.1347  14.2069  14.3474  14.6241  14.8072  14.9790  15.2164
    15.3336  15.3699  15.5500  15.7524  15.8150  15.9127  15.9331  16.0416
    16.1194  16.3337  16.3379  16.5590  16.7966  17.0557  17.1496  17.2732
    17.8157  17.8776  17.9499

          k = 0.0000 0.4000-0.2441 ( 17968 PWs)   bands (ev):

   -25.8280 -25.8156 -25.7903 -25.7801 -25.3246 -25.2784 -25.2594 -25.2303
   -24.3323 -24.3180 -24.2994 -24.2827 -24.2724 -24.2569 -24.2562 -24.2361
   -13.5148 -13.4940 -13.4039 -13.3793  -8.2081  -8.1868  -8.1564  -8.0309
    -7.3701  -7.3179  -7.2785  -7.2404  -7.2146  -7.1263  -7.1214  -7.0971
    -6.9988  -6.9664  -6.7566  -6.6918  -6.4222  -6.3965  -6.3724  -6.2867
    -6.2731  -6.1669  -6.1291  -6.0372  -5.9298  -5.8917  -5.8076  -5.7214
    -4.6306  -4.6141  -4.5880  -4.4733  -4.4514  -4.3749  -4.3203  -4.2646
    -4.2434  -4.1721  -4.1707  -4.1283  -4.1079  -4.1055  -4.0971  -4.0480
    -3.4005  -3.3394  -3.2658  -3.2424   0.3842   0.4298   0.4700   0.5139
     0.5228   0.6005   0.6329   0.6753   6.2741   6.3701   6.5062   6.6904
     6.8946   7.6355   7.7970   8.4969   9.3108   9.5798   9.6253  10.0175
    10.3042  10.5034  10.5771  10.8486  10.9135  11.3016  11.4204  11.4358
    12.0714  12.2732  12.4121  12.7929  13.1288  13.2446  13.5310  13.6465
    13.6968  13.7870  14.1993  14.2418  14.6045  14.7693  14.9550  15.0798
    15.3420  15.3847  15.3957  15.5580  15.6506  15.7581  15.9421  16.1498
    16.1855  16.3344  16.5510  16.8514  16.9723  17.1612  17.1779  17.3185
    17.5541  17.9472  18.1640

          k = 0.0000 0.4000 0.3268 ( 18004 PWs)   bands (ev):

   -25.8224 -25.8212 -25.7852 -25.7851 -25.3029 -25.3018 -25.2459 -25.2436
   -24.3269 -24.3248 -24.2857 -24.2824 -24.2733 -24.2725 -24.2438 -24.2430
   -13.4624 -13.4585 -13.4391 -13.4349  -8.1981  -8.1756  -8.1016  -8.0787
    -7.4015  -7.3434  -7.2936  -7.2674  -7.1904  -7.1442  -7.0731  -7.0607
    -6.9516  -6.9110  -6.8309  -6.7832  -6.4275  -6.4069  -6.3774  -6.3215
    -6.2804  -6.1667  -6.0681  -6.0609  -5.8915  -5.8805  -5.7585  -5.7523
    -4.5896  -4.5851  -4.5366  -4.5264  -4.4313  -4.4277  -4.2675  -4.2618
    -4.2259  -4.2004  -4.1846  -4.1521  -4.1139  -4.1048  -4.0823  -4.0769
    -3.3482  -3.3340  -3.2956  -3.2905   0.4076   0.4142   0.4514   0.4632
     0.5798   0.5838   0.6557   0.6600   6.3278   6.3690   6.6899   6.7448
     7.0022   7.2304   8.0011   8.0596   9.2950   9.4811   9.7095   9.7631
    10.4303  10.5173  10.7503  10.9338  11.1704  11.2614  11.7101  11.8477
    12.0531  12.1072  12.5162  12.7499  13.0583  13.2755  13.3450  13.4472
    13.5834  13.9394  14.1521  14.2955  14.3697  14.5944  14.7373  15.0166
    15.0562  15.2884  15.4701  15.4712  15.6049  15.8495  15.8833  16.1516
    16.2250  16.3298  16.4178  16.6351  16.9434  17.2545  17.4590  17.4900
    17.9581  17.9594  18.3264

          k = 0.0000 0.4000 0.1365 ( 17959 PWs)   bands (ev):

   -25.8290 -25.8148 -25.7901 -25.7801 -25.3252 -25.2772 -25.2580 -25.2323
   -24.3338 -24.3165 -24.2952 -24.2860 -24.2728 -24.2591 -24.2564 -24.2341
   -13.5124 -13.4909 -13.4070 -13.3822  -8.1962  -8.1903  -8.1448  -8.0500
    -7.3515  -7.3441  -7.2724  -7.2170  -7.1798  -7.1736  -7.1137  -7.0682
    -7.0177  -6.9209  -6.8304  -6.6997  -6.4494  -6.3881  -6.3539  -6.3491
    -6.2485  -6.2069  -6.1128  -6.0346  -5.8821  -5.8789  -5.8115  -5.7066
    -4.6241  -4.6097  -4.5841  -4.4759  -4.4632  -4.3869  -4.3072  -4.2378
    -4.2244  -4.2020  -4.1549  -4.1301  -4.1301  -4.1140  -4.0782  -4.0699
    -3.3923  -3.3409  -3.2796  -3.2349   0.3703   0.4166   0.4688   0.5175
     0.5246   0.6035   0.6394   0.6854   6.3065   6.3897   6.5428   6.7438
     6.9191   7.6188   7.6913   8.5087   8.9444   9.4937   9.5369  10.1646
    10.2039  10.6897  10.7355  10.7755  11.0322  11.3388  11.4110  11.8301
    12.0629  12.1444  12.2980  12.7454  13.1732  13.2800  13.4638  13.7250
    13.7884  13.8219  14.2393  14.3393  14.5154  14.6951  14.8424  14.9960
    15.2299  15.2979  15.4592  15.4969  15.7477  15.8573  15.9811  16.0774
    16.1692  16.3572  16.5110  16.6514  16.7607  17.1078  17.1674  17.5176
    17.8402  17.9840  18.0163

          k = 0.1979 0.4000-0.0538 ( 17957 PWs)   bands (ev):

   -25.8279 -25.8143 -25.7908 -25.7803 -25.3279 -25.2882 -25.2482 -25.2287
   -24.3343 -24.3208 -24.2950 -24.2889 -24.2658 -24.2632 -24.2485 -24.2378
   -13.5324 -13.5186 -13.3781 -13.3605  -8.2278  -8.2093  -8.1373  -8.0323
    -7.3329  -7.2946  -7.2528  -7.2387  -7.1892  -7.1533  -7.1324  -7.1189
    -7.0390  -7.0090  -6.6961  -6.6454  -6.4657  -6.4429  -6.2931  -6.2847
    -6.2661  -6.2012  -6.1336  -6.0242  -5.9628  -5.9080  -5.7890  -5.6962
    -4.6603  -4.6568  -4.5811  -4.4984  -4.4391  -4.3737  -4.3055  -4.2543
    -4.2270  -4.2017  -4.1532  -4.1405  -4.1204  -4.0887  -4.0721  -4.0606
    -3.4055  -3.3649  -3.2396  -3.2205   0.3856   0.4017   0.4846   0.4919
     0.5731   0.5772   0.6571   0.6669   6.2855   6.4232   6.4757   6.7257
     6.8904   7.3907   8.3220   8.5347   9.0310   9.2889   9.5528   9.8560
    10.2551  10.4195  10.7388  10.8517  10.9874  11.0781  11.2930  11.7942
    11.9986  12.2614  12.5724  12.7877  13.2347  13.2692  13.5319  13.7750
    13.9166  14.0138  14.3430  14.5306  14.6321  14.8091  14.8797  15.1159
    15.2142  15.3742  15.5500  15.6059  15.8727  15.8862  15.9619  16.0523
    16.2216  16.3071  16.4140  16.4618  16.6004  16.7141  17.3075  17.5066
    17.5996  17.7385  17.9328

          k = 0.1979 0.4000-0.2441 ( 17952 PWs)   bands (ev):

   -25.8251 -25.8158 -25.7899 -25.7822 -25.3196 -25.2887 -25.2525 -25.2337
   -24.3307 -24.3207 -24.2971 -24.2852 -24.2673 -24.2575 -24.2548 -24.2394
   -13.5122 -13.4976 -13.3998 -13.3825  -8.2218  -8.1982  -8.1233  -8.0357
    -7.3678  -7.3304  -7.2982  -7.2543  -7.1772  -7.1280  -7.1228  -7.0982
    -7.0031  -6.9767  -6.7290  -6.6847  -6.4619  -6.4406  -6.3043  -6.2945
    -6.2515  -6.1695  -6.1133  -6.0305  -5.9604  -5.9123  -5.7805  -5.7104
    -4.6405  -4.6228  -4.5771  -4.5133  -4.4316  -4.3847  -4.2907  -4.2591
    -4.2359  -4.1890  -4.1608  -4.1475  -4.1182  -4.0984  -4.0847  -4.0547
    -3.3914  -3.3486  -3.2637  -3.2474   0.3884   0.4196   0.4748   0.4982
     0.5449   0.5914   0.6405   0.6697   6.2957   6.4114   6.5665   6.7167
     6.9007   7.4560   7.9844   8.5199   9.0921   9.3836   9.5197   9.7834
    10.2566  10.4848  10.7484  10.8579  11.1420  11.3295  11.5420  11.7337
    11.9924  12.1943  12.6808  12.7772  13.1190  13.1721  13.4595  13.5079
    13.9250  14.0097  14.1554  14.2715  14.5943  14.6809  15.0066  15.0533
    15.1168  15.3540  15.4322  15.5033  15.7062  15.9490  15.9836  16.0726
    16.2196  16.3214  16.4249  16.4999  16.8364  17.0082  17.2838  17.4820
    17.5958  17.8756  18.1607

          k = 0.1979 0.4000 0.3268 ( 17955 PWs)   bands (ev):

   -25.8206 -25.8196 -25.7868 -25.7861 -25.3018 -25.3001 -25.2482 -25.2460
   -24.3252 -24.3236 -24.2906 -24.2882 -24.2674 -24.2644 -24.2467 -24.2453
   -13.4611 -13.4581 -13.4394 -13.4362  -8.2076  -8.1922  -8.0849  -8.0673
    -7.3911  -7.3472  -7.3219  -7.2859  -7.1592  -7.1312  -7.0804  -7.0717
    -6.9444  -6.8816  -6.8495  -6.7904  -6.4669  -6.4267  -6.3248  -6.3026
    -6.2722  -6.1737  -6.0608  -6.0422  -5.9248  -5.9070  -5.7597  -5.7119
    -4.6171  -4.6040  -4.5362  -4.5262  -4.4205  -4.4180  -4.2579  -4.2513
    -4.2224  -4.2027  -4.1941  -4.1643  -4.1098  -4.1042  -4.0816  -4.0751
    -3.3431  -3.3301  -3.3025  -3.2952   0.4067   0.4111   0.4543   0.4620
     0.5864   0.5900   0.6495   0.6537   6.3427   6.3780   6.7064   6.7530
     7.0997   7.3112   7.9596   8.0893   9.0172   9.1511   9.5010   9.7773
    10.4409  10.6429  10.7102  10.9388  11.4105  11.6102  11.8581  11.9938
    12.0590  12.2194  12.4687  12.7127  13.0221  13.1278  13.3196  13.3904
    13.6842  13.8399  14.1041  14.2801  14.4079  14.6703  14.7737  14.8489
    15.1688  15.2888  15.4156  15.4706  15.6312  15.8772  16.0304  16.1387
    16.2965  16.3670  16.4029  16.5649  16.8257  17.0205  17.3162  17.3674
    17.8779  17.9226  18.1821

          k = 0.1979 0.4000 0.1365 ( 17953 PWs)   bands (ev):

   -25.8259 -25.8154 -25.7897 -25.7822 -25.3200 -25.2880 -25.2515 -25.2350
   -24.3319 -24.3198 -24.2937 -24.2871 -24.2689 -24.2588 -24.2553 -24.2374
   -13.5096 -13.4946 -13.4028 -13.3854  -8.2115  -8.2057  -8.1125  -8.0505
    -7.3549  -7.3323  -7.2866  -7.2581  -7.1696  -7.1476  -7.1027  -7.0791
    -7.0017  -6.9337  -6.8104  -6.7113  -6.4697  -6.4365  -6.3151  -6.2897
    -6.2800  -6.2062  -6.0881  -6.0260  -5.9309  -5.9012  -5.7712  -5.6945
    -4.6372  -4.6312  -4.5587  -4.5020  -4.4417  -4.3927  -4.2903  -4.2375
    -4.2245  -4.2101  -4.1597  -4.1583  -4.1160  -4.0949  -4.0802  -4.0741
    -3.3851  -3.3494  -3.2738  -3.2426   0.3744   0.4059   0.4750   0.5015
     0.5471   0.5945   0.6469   0.6792   6.3246   6.3914   6.6347   6.7465
     6.9514   7.5019   7.8761   8.4511   8.8823   9.0898   9.5575   9.7941
    10.4123  10.6204  10.7284  10.9161  11.2843  11.3698  11.4815  11.7235
    12.0836  12.3572  12.6400  12.8725  13.1784  13.2358  13.4685  13.5252
    13.6858  13.8848  14.1636  14.4553  14.5697  14.7012  14.7733  14.8774
    14.9471  15.4247  15.5518  15.6348  15.7141  15.7690  15.9160  16.0316
    16.2832  16.4377  16.5734  16.6790  16.7540  16.7765  17.2800  17.4069
    17.5965  17.8821  18.0264

          k =-0.3958 0.4000-0.0538 ( 17920 PWs)   bands (ev):

   -25.8204 -25.8204 -25.7858 -25.7858 -25.3112 -25.3112 -25.2362 -25.2362
   -24.3294 -24.3294 -24.2893 -24.2893 -24.2627 -24.2627 -24.2451 -24.2451
   -13.5259 -13.5259 -13.3689 -13.3689  -8.2287  -8.2287  -8.0738  -8.0738
    -7.3169  -7.3169  -7.2588  -7.2588  -7.1730  -7.1730  -7.1100  -7.1100
    -7.0292  -7.0292  -6.6561  -6.6561  -6.4755  -6.4755  -6.3002  -6.3002
    -6.2177  -6.2177  -6.0458  -6.0458  -5.9744  -5.9744  -5.7202  -5.7202
    -4.6586  -4.6586  -4.5541  -4.5541  -4.4017  -4.4017  -4.2734  -4.2734
    -4.2148  -4.2148  -4.1528  -4.1528  -4.0987  -4.0987  -4.0710  -4.0710
    -3.3850  -3.3850  -3.2320  -3.2320   0.3938   0.3938   0.4838   0.4838
     0.5793   0.5793   0.6617   0.6617   6.3492   6.3492   6.7252   6.7252
     7.0158   7.0158   8.5224   8.5224   9.0728   9.0728   9.5405   9.5405
    10.3471  10.3471  10.6781  10.6781  10.9987  10.9987  11.7397  11.7397
    12.4259  12.4259  12.8008  12.8008  13.1337  13.1337  13.5466  13.5466
    14.0104  14.0104  14.6006  14.6006  14.7171  14.7171  14.8801  14.8801
    15.2436  15.2436  15.5999  15.5999  15.7439  15.7439  16.0302  16.0302
    16.1379  16.1379  16.4633  16.4633  16.8480  16.8480  17.1706  17.1706
    17.7028  17.7028  17.9008

          k =-0.3958 0.4000-0.2441 ( 17960 PWs)   bands (ev):

   -25.8193 -25.8193 -25.7869 -25.7869 -25.3060 -25.3060 -25.2422 -25.2422
   -24.3263 -24.3263 -24.2910 -24.2910 -24.2608 -24.2608 -24.2477 -24.2477
   -13.5053 -13.5053 -13.3907 -13.3907  -8.2200  -8.2200  -8.0681  -8.0681
    -7.3529  -7.3529  -7.2882  -7.2882  -7.1469  -7.1469  -7.1062  -7.1062
    -6.9966  -6.9966  -6.6889  -6.6889  -6.4705  -6.4705  -6.3070  -6.3070
    -6.1905  -6.1905  -6.0427  -6.0427  -5.9774  -5.9774  -5.7249  -5.7249
    -4.6385  -4.6385  -4.5580  -4.5580  -4.4026  -4.4026  -4.2604  -4.2604
    -4.2175  -4.2175  -4.1603  -4.1603  -4.1056  -4.1056  -4.0709  -4.0709
    -3.3700  -3.3700  -3.2570  -3.2570   0.4014   0.4014   0.4847   0.4847
     0.5710   0.5710   0.6558   0.6558   6.3556   6.3556   6.7326   6.7326
     7.0806   7.0806   8.3238   8.3238   9.2172   9.2172   9.3454   9.3454
    10.4104  10.4104  10.8803  10.8803  11.1508  11.1508  11.8669  11.8669
    12.4038  12.4038  12.7070  12.7070  12.9963  12.9963  13.3570  13.3570
    14.0111  14.0111  14.4771  14.4771  14.5803  14.5803  14.9004  14.9004
    15.1884  15.1884  15.5660  15.5660  15.7995  15.7995  15.8592  15.8592
    16.2663  16.2663  16.5202  16.5202  16.8746  16.8746  17.2190  17.2190
    17.8762  17.8765  18.1325

          k =-0.3958 0.4000 0.3268 ( 17938 PWs)   bands (ev):

   -25.8183 -25.8183 -25.7878 -25.7878 -25.2995 -25.2995 -25.2495 -25.2495
   -24.3228 -24.3228 -24.2931 -24.2931 -24.2588 -24.2588 -24.2504 -24.2504
   -13.4587 -13.4587 -13.4388 -13.4388  -8.2106  -8.2106  -8.0645  -8.0645
    -7.3642  -7.3642  -7.3256  -7.3256  -7.1161  -7.1161  -7.0958  -7.0958
    -6.9068  -6.9068  -6.8217  -6.8217  -6.4554  -6.4554  -6.3165  -6.3165
    -6.2071  -6.2071  -6.0027  -6.0027  -5.9794  -5.9794  -5.7150  -5.7150
    -4.6274  -4.6274  -4.5359  -4.5359  -4.4117  -4.4117  -4.2405  -4.2405
    -4.2159  -4.2159  -4.1862  -4.1862  -4.1062  -4.1062  -4.0780  -4.0780
    -3.3315  -3.3315  -3.3054  -3.3054   0.4072   0.4072   0.4586   0.4586
     0.5963   0.5963   0.6437   0.6437   6.3707   6.3707   6.7379   6.7379
     7.3330   7.3330   7.9581   7.9581   8.9289   8.9289   9.4548   9.4548
    10.5482  10.5482  10.8390  10.8390  11.8053  11.8053  11.9584  11.9584
    12.4631  12.4631  12.6741  12.6741  12.8181  12.8181  13.1729  13.1729
    13.6915  13.6915  14.2373  14.2373  14.5125  14.5125  14.9307  14.9307
    15.1963  15.1963  15.4817  15.4817  15.7730  15.7730  16.0071  16.0071
    16.3693  16.3693  16.4843  16.4843  16.9607  16.9607  17.1720  17.1720
    17.7705  17.7707  18.1163

          k =-0.3958 0.4000 0.1365 ( 17956 PWs)   bands (ev):

   -25.8195 -25.8195 -25.7867 -25.7867 -25.3059 -25.3059 -25.2423 -25.2423
   -24.3265 -24.3265 -24.2899 -24.2899 -24.2633 -24.2633 -24.2461 -24.2461
   -13.5026 -13.5026 -13.3936 -13.3936  -8.2196  -8.2196  -8.0701  -8.0701
    -7.3246  -7.3246  -7.3101  -7.3101  -7.1422  -7.1422  -7.0937  -7.0937
    -6.9670  -6.9670  -6.7588  -6.7588  -6.4604  -6.4604  -6.3073  -6.3073
    -6.2325  -6.2325  -6.0136  -6.0136  -5.9709  -5.9709  -5.7103  -5.7103
    -4.6434  -4.6434  -4.5363  -4.5363  -4.4114  -4.4114  -4.2611  -4.2611
    -4.2149  -4.2149  -4.1676  -4.1676  -4.0969  -4.0969  -4.0811  -4.0811
    -3.3678  -3.3678  -3.2592  -3.2592   0.3874   0.3874   0.4870   0.4870
     0.5736   0.5736   0.6634   0.6634   6.3645   6.3645   6.7359   6.7359
     7.1953   7.1953   8.2083   8.2083   8.8705   8.8705   9.5281   9.5281
    10.5057  10.5057  10.7264  10.7264  11.4382  11.4382  11.9228  11.9228
    12.2684  12.2684  12.8512  12.8512  13.1905  13.1905  13.3550  13.3550
    13.8747  13.8747  14.2201  14.2201  14.6010  14.6010  14.8764  14.8764
    15.0599  15.0599  15.4428  15.4428  15.9310  15.9310  16.1229  16.1229
    16.2768  16.2768  16.5226  16.5226  16.9494  16.9494  17.1081  17.1081
    17.6452  17.6452  18.2038

     the Fermi energy is     0.5284 ev

!    total energy              =    -942.21784955 Ry
     estimated scf accuracy    <          8.4E-09 Ry
     smearing contrib. (-TS)   =       0.00044622 Ry
     internal energy E=F+TS    =    -942.21829577 Ry

     The total energy is F=E-TS. E is the sum of the following terms:
     one-electron contribution =    -556.65748650 Ry
     hartree contribution      =     340.35293279 Ry
     xc contribution           =    -181.73964317 Ry
     ewald contribution        =    -467.82032507 Ry
     one-center paw contrib.   =     -76.35377382 Ry

     convergence has been achieved in  11 iterations

     Forces acting on atoms (cartesian axes, Ry/au):

     atom    1 type  1   force =     0.00072207   -0.00297281    0.00081756
     atom    2 type  1   force =     0.00072207    0.00297281   -0.00081756
     atom    3 type  1   force =    -0.00072207    0.00297281   -0.00081756
     atom    4 type  1   force =    -0.00072207   -0.00297281    0.00081756
     atom    5 type  3   force =     0.01326328    0.00501975    0.00685170
     atom    6 type  3   force =     0.01326328   -0.00501975   -0.00685170
     atom    7 type  3   force =    -0.01326328   -0.00501975   -0.00685170
     atom    8 type  3   force =    -0.01326328    0.00501975    0.00685170
     atom    9 type  3   force =    -0.01066086   -0.00589026    0.00097620
     atom   10 type  3   force =    -0.01066086    0.00589026   -0.00097620
     atom   11 type  3   force =     0.01066086    0.00589026   -0.00097620
     atom   12 type  3   force =     0.01066086   -0.00589026    0.00097620
     atom   13 type  2   force =    -0.00592515   -0.00564991   -0.01155378
     atom   14 type  2   force =    -0.00592515    0.00564991    0.01155378
     atom   15 type  2   force =     0.00592515    0.00564991    0.01155378
     atom   16 type  2   force =     0.00592515   -0.00564991   -0.01155378
     atom   17 type  2   force =    -0.00730525   -0.00059784    0.01177721
     atom   18 type  2   force =    -0.00730525    0.00059784   -0.01177721
     atom   19 type  2   force =     0.00730525    0.00059784   -0.01177721
     atom   20 type  2   force =     0.00730525   -0.00059784    0.01177721
     atom   21 type  2   force =     0.01307406    0.00776211   -0.00120376
     atom   22 type  2   force =     0.01307406   -0.00776211    0.00120376
     atom   23 type  2   force =    -0.01307406   -0.00776211    0.00120376
     atom   24 type  2   force =    -0.01307406    0.00776211   -0.00120376

     Total force =     0.064280     Total SCF correction =     0.000341


     Computing stress (Cartesian axis) and pressure

          total   stress  (Ry/bohr**3)                   (kbar)     P=       18.30
   0.00015327   0.00000000   0.00000000           22.55        0.00        0.00
   0.00000000   0.00014977  -0.00001206            0.00       22.03       -1.77
   0.00000000  -0.00001206   0.00007020            0.00       -1.77       10.33


     Writing all to output data dir ./pwscf.save/ :
     XML data file, charge density, pseudopotentials, collected wavefunctions

     init_run     :     56.01s CPU     29.51s WALL (       1 calls)
     electrons    :   1607.45s CPU    817.78s WALL (       1 calls)
     forces       :     16.40s CPU      8.22s WALL (       1 calls)
     stress       :     47.05s CPU     24.07s WALL (       1 calls)

     Called by init_run:
     wfcinit      :     53.78s CPU     27.69s WALL (       1 calls)
     potinit      :      0.84s CPU      0.64s WALL (       1 calls)
     hinit0       :      0.48s CPU      0.43s WALL (       1 calls)

     Called by electrons:
     c_bands      :   1376.80s CPU    700.21s WALL (      11 calls)
     sum_band     :    217.06s CPU    109.68s WALL (      11 calls)
     v_of_rho     :      4.60s CPU      2.50s WALL (      12 calls)
     newd         :      7.13s CPU      3.84s WALL (      12 calls)
     PAW_pot      :      1.38s CPU      1.18s WALL (      12 calls)
     mix_rho      :      0.79s CPU      0.48s WALL (      11 calls)

     Called by c_bands:
     init_us_2    :     19.66s CPU     10.53s WALL (     825 calls)
     cegterg      :   1346.52s CPU    683.10s WALL (     363 calls)

     Called by *egterg:
     cdiaghg      :     65.27s CPU     32.82s WALL (    1457 calls)
     h_psi        :    916.43s CPU    468.59s WALL (    1490 calls)
     s_psi        :     59.66s CPU     31.25s WALL (    1490 calls)
     g_psi        :      3.02s CPU      1.78s WALL (    1094 calls)

     Called by h_psi:
     h_psi:calbec :     80.33s CPU     39.81s WALL (    1490 calls)
     vloc_psi     :    773.34s CPU    396.58s WALL (    1490 calls)
                                        0.00s GPU  (    1490 calls)
     add_vuspsi   :     44.58s CPU     23.20s WALL (    1490 calls)

     General routines
     calbec       :    140.46s CPU     70.05s WALL (    2414 calls)
     fft          :      4.32s CPU      2.47s WALL (     179 calls)
     ffts         :      0.71s CPU      0.47s WALL (      23 calls)
     fftw         :    865.20s CPU    442.06s WALL (  269429 calls)
     interpolate  :      0.67s CPU      0.49s WALL (      12 calls)

     Parallel routines

     PWSCF        :  28m49.20s CPU  14m52.91s WALL


   This run was terminated on:  22:18: 1  16Apr2026            

=------------------------------------------------------------------------------=
   JOB DONE.
=------------------------------------------------------------------------------=
