
     Program PWSCF v.7.5 starts on 16Apr2026 at 21:17:15 

     This program is part of the open-source Quantum ESPRESSO suite
     for quantum simulation of materials; please cite
         "P. Giannozzi et al., J. Phys.:Condens. Matter 21 395502 (2009);
         "P. Giannozzi et al., J. Phys.:Condens. Matter 29 465901 (2017);
         "P. Giannozzi et al., J. Chem. Phys. 152 154105 (2020);
          URL http://www.quantum-espresso.org", 
     in publications or presentations arising from this work. More details at
     http://www.quantum-espresso.org/quote

     Parallel version (MPI & OpenMP), running on      16 processor cores
     Number of MPI processes:                 8
     Threads/MPI process:                     2

     MPI processes distributed on     1 nodes
     6606 MiB available memory on the printing compute node when the environment starts

     Reading input from scf.in
Warning: card &CELL ignored

     Current dimensions of program PWSCF are:
     Max number of different atomic species (ntypx) = 10
     Max number of k-points (npk) =  40000
     Max angular momentum in pseudopotentials (lmaxx) =  4
     file Pr.paw.z_13.atompaw.wentzcovitch.v1.2.upf: wavefunction(s)  6S 0P 5D 0D 0F renormalized

     R & G space division:  proc/nbgrp/npool/nimage =       8
     Subspace diagonalization in iterative solution of the eigenvalue problem:
     one sub-group per band group will be used
     ELPA distributed-memory algorithm (size of sub-group:  2*  2 procs)


     Parallelization info
     --------------------
     sticks:   dense  smooth     PW     G-vecs:    dense   smooth      PW
     Min         668     335     94                35938    12703    1906
     Max         669     336     95                35940    12705    1908
     Sum        5349    2685    753               287511   101631   15259

     Using Slab Decomposition



     bravais-lattice index     =            0
     lattice parameter (alat)  =      11.5094  a.u.
     unit-cell volume          =    1619.2056 (a.u.)^3
     number of atoms/cell      =           18
     number of atomic types    =            3
     number of electrons       =       150.00
     number of Kohn-Sham states=          206
     kinetic-energy cutoff     =      60.0000  Ry
     charge density cutoff     =     480.0000  Ry
     scf convergence threshold =      1.0E-08
     mixing beta               =       0.4000
     number of iterations used =            8  plain     mixing
     Exchange-correlation= SLA PW PBX PBC
                           (   1   4   3   4   0   0   0)

     celldm(1)=  11.509385  celldm(2)=   0.000000  celldm(3)=   0.000000
     celldm(4)=   0.000000  celldm(5)=   0.000000  celldm(6)=   0.000000

     crystal axes: (cart. coord. in units of alat)
               a(1) = (   1.000000   0.000000   0.000000 )  
               a(2) = (   0.498309   1.059316   0.000000 )  
               a(3) = (   0.498625   0.347682   1.002582 )  

     reciprocal axes: (cart. coord. in units 2 pi/alat)
               b(1) = (  1.000000 -0.470407 -0.334210 )  
               b(2) = (  0.000000  0.944005 -0.327368 )  
               b(3) = (  0.000000  0.000000  0.997424 )  


     PseudoPot. # 1 for F  read from file:
     /mnt/d/DeepESense/pseudo/SSSP_1.3.0_PBE_efficiency/f_pbe_v1.4.uspp.F.UPF
     MD5 check sum: 4c38b6a325caf53ec0e86aed9459de46
     Pseudo is Ultrasoft, Zval =  7.0
     Generated by new atomic code, or converted to UPF format
     Using radial grid of  799 points,  4 beta functions with: 
                l(1) =   0
                l(2) =   0
                l(3) =   1
                l(4) =   1
     Q(r) pseudized with  8 coefficients,  rinner =    0.950   0.950   0.950


     PseudoPot. # 2 for Na read from file:
     /mnt/d/DeepESense/pseudo/SSSP_1.3.0_PBE_efficiency/na_pbe_v1.5.uspp.F.UPF
     MD5 check sum: 44600605ef58000f06b90626533354dc
     Pseudo is Ultrasoft, Zval =  9.0
     Generated by new atomic code, or converted to UPF format
     Using radial grid of  819 points,  5 beta functions with: 
                l(1) =   0
                l(2) =   0
                l(3) =   1
                l(4) =   1
                l(5) =   2
     Q(r) pseudized with  8 coefficients,  rinner =    1.250   1.250   1.250
                                                       1.250   1.250

     PseudoPot. # 3 for Pr read from file:
     /mnt/d/DeepESense/pseudo/SSSP_1.3.0_PBE_efficiency/Pr.paw.z_13.atompaw.wentzcovitch.v1.2.upf
     MD5 check sum: e0f8e046fa815e336ba020f7e7bc75cb
     Pseudo is Projector augmented-wave + core cor, Zval = 13.0
     Generated using ATOMPAW code
     Shape of augmentation charge: BESSEL
     Using radial grid of 1103 points,  8 beta functions with: 
                l(1) =   0
                l(2) =   0
                l(3) =   1
                l(4) =   1
                l(5) =   2
                l(6) =   2
                l(7) =   3
                l(8) =   3
     Q(r) pseudized with 0 coefficients 


     atomic species   valence    mass     pseudopotential
     F                 7.00    18.99840     F ( 1.00)
     Na                9.00    22.98980     Na( 1.00)
     Pr               13.00   140.90760     Pr( 1.00)

     No symmetry found



   Cartesian axes

     site n.     atom                  positions (alat units)
         1        Na     tau(   1) = (   0.9928664   0.5604895   0.1794121  )
         2        Na     tau(   2) = (   1.5027189   1.2919509   0.6969490  )
         3        Na     tau(   3) = (   0.9958294   0.7658102   0.9154538  )
         4        Pr     tau(   4) = (   0.4994772   1.0539796   0.0022207  )
         5        Pr     tau(   5) = (   1.4974957   0.7002216   0.5109921  )
         6        Pr     tau(   6) = (   0.9984532   1.1153377   0.4138589  )
         7        F      tau(   7) = (   0.6379944   0.7033692   0.1347200  )
         8        F      tau(   8) = (   0.6559808   0.3510747   0.6316468  )
         9        F      tau(   9) = (   1.6122736   0.7092433   0.8922370  )
        10        F      tau(  10) = (   1.6054422   1.0724677   0.3917540  )
        11        F      tau(  11) = (   1.2359804   0.8530414   0.2364410  )
        12        F      tau(  12) = (   1.2439327   0.5107534   0.7505391  )
        13        F      tau(  13) = (   0.3902652   0.0168029   0.0336076  )
        14        F      tau(  14) = (   0.8883220   0.7439403   0.5067421  )
        15        F      tau(  15) = (   1.2722582   0.9787126   0.6689178  )
        16        F      tau(  16) = (   0.7752655   0.2459715   0.2005946  )
        17        F      tau(  17) = (   0.8355204   1.1295204   0.7767606  )
        18        F      tau(  18) = (   0.3320958   0.4025673   0.3164220  )

     number of k points=    42  Marzari-Vanderbilt smearing, width (Ry)=  0.0050
                       cart. coord. in units 2pi/alat
        k(    1) = (   0.0000000   0.0000000   0.0000000), wk =   0.0250000
        k(    2) = (   0.0000000   0.0000000   0.2493561), wk =   0.0500000
        k(    3) = (   0.0000000   0.0000000  -0.4987122), wk =   0.0250000
        k(    4) = (   0.0000000   0.2360012  -0.0818421), wk =   0.0500000
        k(    5) = (   0.0000000   0.2360012   0.1675140), wk =   0.0500000
        k(    6) = (   0.0000000   0.2360012  -0.5805543), wk =   0.0500000
        k(    7) = (   0.0000000   0.2360012  -0.3311982), wk =   0.0500000
        k(    8) = (   0.0000000  -0.4720025   0.1636842), wk =   0.0250000
        k(    9) = (   0.0000000  -0.4720025   0.4130403), wk =   0.0500000
        k(   10) = (   0.0000000  -0.4720025  -0.3350280), wk =   0.0250000
        k(   11) = (   0.2000000  -0.0940813  -0.0668421), wk =   0.0500000
        k(   12) = (   0.2000000  -0.0940813   0.1825140), wk =   0.0500000
        k(   13) = (   0.2000000  -0.0940813  -0.5655543), wk =   0.0500000
        k(   14) = (   0.2000000  -0.0940813  -0.3161982), wk =   0.0500000
        k(   15) = (   0.2000000   0.1419199  -0.1486842), wk =   0.0500000
        k(   16) = (   0.2000000   0.1419199   0.1006719), wk =   0.0500000
        k(   17) = (   0.2000000   0.1419199  -0.6473964), wk =   0.0500000
        k(   18) = (   0.2000000   0.1419199  -0.3980403), wk =   0.0500000
        k(   19) = (   0.2000000  -0.5660838   0.0968421), wk =   0.0500000
        k(   20) = (   0.2000000  -0.5660838   0.3461982), wk =   0.0500000
        k(   21) = (   0.2000000  -0.5660838  -0.4018701), wk =   0.0500000
        k(   22) = (   0.2000000  -0.5660838  -0.1525140), wk =   0.0500000
        k(   23) = (   0.2000000  -0.3300826   0.0150000), wk =   0.0500000
        k(   24) = (   0.2000000  -0.3300826   0.2643561), wk =   0.0500000
        k(   25) = (   0.2000000  -0.3300826  -0.4837122), wk =   0.0500000
        k(   26) = (   0.2000000  -0.3300826  -0.2343561), wk =   0.0500000
        k(   27) = (   0.4000000  -0.1881627  -0.1336841), wk =   0.0500000
        k(   28) = (   0.4000000  -0.1881627   0.1156720), wk =   0.0500000
        k(   29) = (   0.4000000  -0.1881627  -0.6323964), wk =   0.0500000
        k(   30) = (   0.4000000  -0.1881627  -0.3830403), wk =   0.0500000
        k(   31) = (   0.4000000   0.0478386  -0.2155263), wk =   0.0500000
        k(   32) = (   0.4000000   0.0478386   0.0338299), wk =   0.0500000
        k(   33) = (   0.4000000   0.0478386  -0.7142385), wk =   0.0500000
        k(   34) = (   0.4000000   0.0478386  -0.4648824), wk =   0.0500000
        k(   35) = (   0.4000000  -0.6601652   0.0300001), wk =   0.0500000
        k(   36) = (   0.4000000  -0.6601652   0.2793562), wk =   0.0500000
        k(   37) = (   0.4000000  -0.6601652  -0.4687122), wk =   0.0500000
        k(   38) = (   0.4000000  -0.6601652  -0.2193560), wk =   0.0500000
        k(   39) = (   0.4000000  -0.4241639  -0.0518420), wk =   0.0500000
        k(   40) = (   0.4000000  -0.4241639   0.1975141), wk =   0.0500000
        k(   41) = (   0.4000000  -0.4241639  -0.5505543), wk =   0.0500000
        k(   42) = (   0.4000000  -0.4241639  -0.3011981), wk =   0.0500000

     Dense  grid:   287511 G-vectors     FFT dimensions: (  81,  96,  96)

     Smooth grid:   101631 G-vectors     FFT dimensions: (  60,  72,  72)

     Estimated max dynamical RAM per process >     579.68 MB

     Estimated total dynamical RAM >       4.53 GB

     Initial potential from superposition of free atoms

     starting charge     149.9589, renormalised to     150.0000
     Starting wfcs are  159 randomized atomic wfcs +   47 random wfcs
     Checking if some PAW data can be deallocated... 

     total cpu time spent up to now is      122.3 secs

     per-process dynamical memory:   288.1 Mb

     Self-consistent Calculation

     iteration #  1     ecut=    60.00 Ry     beta= 0.40
     Davidson diagonalization with overlap
     ethr =  1.00E-02,  avg # of iterations =  6.0

     total cpu time spent up to now is      697.4 secs

     total energy              =   -2387.39504952 Ry
     estimated scf accuracy    <      14.72066881 Ry

     iteration #  2     ecut=    60.00 Ry     beta= 0.40
     Davidson diagonalization with overlap
     ethr =  9.81E-03,  avg # of iterations =  3.0

     total cpu time spent up to now is      843.5 secs

     total energy              =   -2382.23695056 Ry
     estimated scf accuracy    <     323.56270277 Ry

     iteration #  3     ecut=    60.00 Ry     beta= 0.40
     Davidson diagonalization with overlap
     ethr =  9.81E-03,  avg # of iterations =  2.0

     total cpu time spent up to now is      966.9 secs

     total energy              =   -2397.26997633 Ry
     estimated scf accuracy    <      20.91612642 Ry

     iteration #  4     ecut=    60.00 Ry     beta= 0.40
     Davidson diagonalization with overlap
     ethr =  9.81E-03,  avg # of iterations =  1.0

     total cpu time spent up to now is     1071.9 secs

     total energy              =   -2398.38281426 Ry
     estimated scf accuracy    <      23.98237534 Ry

     iteration #  5     ecut=    60.00 Ry     beta= 0.40
     Davidson diagonalization with overlap
     ethr =  9.81E-03,  avg # of iterations =  1.0

     total cpu time spent up to now is     1180.9 secs

     total energy              =   -2397.81561558 Ry
     estimated scf accuracy    <      16.98506868 Ry

     iteration #  6     ecut=    60.00 Ry     beta= 0.40
     Davidson diagonalization with overlap
     ethr =  9.81E-03,  avg # of iterations =  1.0

     total cpu time spent up to now is     1302.4 secs

     total energy              =   -2397.28953057 Ry
     estimated scf accuracy    <      16.61073670 Ry

     iteration #  7     ecut=    60.00 Ry     beta= 0.40
     Davidson diagonalization with overlap
     ethr =  9.81E-03,  avg # of iterations =  1.0

     total cpu time spent up to now is     1407.5 secs

     total energy              =   -2396.30764842 Ry
     estimated scf accuracy    <       6.09180839 Ry

     iteration #  8     ecut=    60.00 Ry     beta= 0.40
     Davidson diagonalization with overlap
     ethr =  4.06E-03,  avg # of iterations =  2.0

     total cpu time spent up to now is     1539.2 secs

     total energy              =   -2395.11034622 Ry
     estimated scf accuracy    <     108.80478258 Ry

     iteration #  9     ecut=    60.00 Ry     beta= 0.40
     Davidson diagonalization with overlap
     ethr =  4.06E-03,  avg # of iterations =  1.0
     Minimization algorithm failed to find Fermi energy: reverting to bisection
     Possible cause: smearing is larger than the electronic band-gap.

     total cpu time spent up to now is     1650.1 secs

     total energy              =   -2397.49722136 Ry
     estimated scf accuracy    <      16.32588866 Ry

     iteration # 10     ecut=    60.00 Ry     beta= 0.40
     Davidson diagonalization with overlap
     ethr =  4.06E-03,  avg # of iterations =  1.0

     total cpu time spent up to now is     1761.5 secs

     total energy              =   -2397.86304098 Ry
     estimated scf accuracy    <      15.44265841 Ry

     iteration # 11     ecut=    60.00 Ry     beta= 0.40
     Davidson diagonalization with overlap
     ethr =  4.06E-03,  avg # of iterations =  1.0

     total cpu time spent up to now is     1869.4 secs

     total energy              =   -2396.56188949 Ry
     estimated scf accuracy    <      16.44222112 Ry

     iteration # 12     ecut=    60.00 Ry     beta= 0.40
     Davidson diagonalization with overlap
     ethr =  4.06E-03,  avg # of iterations =  1.0

     total cpu time spent up to now is     1981.5 secs

     total energy              =   -2396.70976757 Ry
     estimated scf accuracy    <      15.25317382 Ry

     iteration # 13     ecut=    60.00 Ry     beta= 0.40
     Davidson diagonalization with overlap
     ethr =  4.06E-03,  avg # of iterations =  1.0

     total cpu time spent up to now is     2110.5 secs

     total energy              =   -2397.43739958 Ry
     estimated scf accuracy    <      16.01593758 Ry

     iteration # 14     ecut=    60.00 Ry     beta= 0.40
     Davidson diagonalization with overlap
     ethr =  4.06E-03,  avg # of iterations =  1.0

     total cpu time spent up to now is     2218.9 secs

     total energy              =   -2397.37901549 Ry
     estimated scf accuracy    <       7.34965247 Ry

     iteration # 15     ecut=    60.00 Ry     beta= 0.40
     Davidson diagonalization with overlap
     ethr =  4.06E-03,  avg # of iterations =  1.0

     total cpu time spent up to now is     2328.0 secs

     total energy              =   -2397.30043398 Ry
     estimated scf accuracy    <      10.24317143 Ry

     iteration # 16     ecut=    60.00 Ry     beta= 0.40
     Davidson diagonalization with overlap
     ethr =  4.06E-03,  avg # of iterations =  1.0

     total cpu time spent up to now is     2436.6 secs

     total energy              =   -2397.19753931 Ry
     estimated scf accuracy    <      13.90766023 Ry

     iteration # 17     ecut=    60.00 Ry     beta= 0.40
     Davidson diagonalization with overlap
     ethr =  4.06E-03,  avg # of iterations =  1.0

     total cpu time spent up to now is     2545.3 secs

     total energy              =   -2397.16816201 Ry
     estimated scf accuracy    <      11.89516248 Ry

     iteration # 18     ecut=    60.00 Ry     beta= 0.40
     Davidson diagonalization with overlap
     ethr =  4.06E-03,  avg # of iterations =  1.0

     total cpu time spent up to now is     2644.8 secs

     total energy              =   -2396.69219992 Ry
     estimated scf accuracy    <      14.49531700 Ry

     iteration # 19     ecut=    60.00 Ry     beta= 0.40
     Davidson diagonalization with overlap
     ethr =  4.06E-03,  avg # of iterations =  1.0
