
     Program PWSCF v.7.5 starts on 16Apr2026 at 18:21: 2 

     This program is part of the open-source Quantum ESPRESSO suite
     for quantum simulation of materials; please cite
         "P. Giannozzi et al., J. Phys.:Condens. Matter 21 395502 (2009);
         "P. Giannozzi et al., J. Phys.:Condens. Matter 29 465901 (2017);
         "P. Giannozzi et al., J. Chem. Phys. 152 154105 (2020);
          URL http://www.quantum-espresso.org", 
     in publications or presentations arising from this work. More details at
     http://www.quantum-espresso.org/quote

     Parallel version (MPI & OpenMP), running on      16 processor cores
     Number of MPI processes:                 8
     Threads/MPI process:                     2

     MPI processes distributed on     1 nodes
     6613 MiB available memory on the printing compute node when the environment starts

     Reading input from nscf.in
Warning: card &IONS ignored
Warning: card &CELL ignored

     Current dimensions of program PWSCF are:
     Max number of different atomic species (ntypx) = 10
     Max number of k-points (npk) =  40000
     Max angular momentum in pseudopotentials (lmaxx) =  4
     file Ho.paw.z_21.atompaw.wentzcovitch.v1.2.upf: wavefunction(s)  6S 0P 5D 0D 4F 0F renormalized

     Atomic positions and unit cell read from directory:
     ./pwscf.save/

     Message from routine setup:
     using ibrav=0 with symmetry is DISCOURAGED, use correct ibrav instead

     R & G space division:  proc/nbgrp/npool/nimage =       8
     Subspace diagonalization in iterative solution of the eigenvalue problem:
     one sub-group per band group will be used
     ELPA distributed-memory algorithm (size of sub-group:  2*  2 procs)


     Parallelization info
     --------------------
     sticks:   dense  smooth     PW     G-vecs:    dense   smooth      PW
     Min         653     327     91                37989    13439    1982
     Max         654     329     93                37993    13441    1983
     Sum        5231    2619    737               303939   107517   15857

     Using Slab Decomposition



     bravais-lattice index     =            0
     lattice parameter (alat)  =      12.3661  a.u.
     unit-cell volume          =    1711.7541 (a.u.)^3
     number of atoms/cell      =           18
     number of atomic types    =            4
     number of electrons       =       152.00
     number of Kohn-Sham states=          210
     kinetic-energy cutoff     =      60.0000  Ry
     charge density cutoff     =     480.0000  Ry
     Exchange-correlation= PBE
                           (   1   4   3   4   0   0   0)

     celldm(1)=  12.366075  celldm(2)=   0.000000  celldm(3)=   0.000000
     celldm(4)=   0.000000  celldm(5)=   0.000000  celldm(6)=   0.000000

     crystal axes: (cart. coord. in units of alat)
               a(1) = (   0.000000   1.000000   0.000000 )  
               a(2) = (   0.898032   0.000000   0.000000 )  
               a(3) = (   0.000000  -0.438695  -1.007985 )  

     reciprocal axes: (cart. coord. in units 2 pi/alat)
               b(1) = (  0.000000  1.000000 -0.435220 )  
               b(2) = (  1.113546 -0.000000  0.000000 )  
               b(3) = (  0.000000  0.000000 -0.992079 )  


     PseudoPot. # 1 for Be read from file:
     /mnt/d/DeepESense/pseudo/SSSP_1.3.0_PBE_efficiency/be_pbe_v1.4.uspp.F.UPF
     MD5 check sum: 5ecff1440924c7c98ad504bef30f5264
     Pseudo is Ultrasoft, Zval =  4.0
     Generated by new atomic code, or converted to UPF format
     Using radial grid of  769 points,  6 beta functions with: 
                l(1) =   0
                l(2) =   0
                l(3) =   0
                l(4) =   1
                l(5) =   1
                l(6) =   2
     Q(r) pseudized with 10 coefficients,  rinner =    1.000   1.000   1.000
                                                       1.000   1.000

     PseudoPot. # 2 for F  read from file:
     /mnt/d/DeepESense/pseudo/SSSP_1.3.0_PBE_efficiency/f_pbe_v1.4.uspp.F.UPF
     MD5 check sum: 4c38b6a325caf53ec0e86aed9459de46
     Pseudo is Ultrasoft, Zval =  7.0
     Generated by new atomic code, or converted to UPF format
     Using radial grid of  799 points,  4 beta functions with: 
                l(1) =   0
                l(2) =   0
                l(3) =   1
                l(4) =   1
     Q(r) pseudized with  8 coefficients,  rinner =    0.950   0.950   0.950


     PseudoPot. # 3 for Ho read from file:
     /mnt/d/DeepESense/pseudo/SSSP_1.3.0_PBE_efficiency/Ho.paw.z_21.atompaw.wentzcovitch.v1.2.upf
     MD5 check sum: f900adcc49abc9ab8113872cdbacec3e
     Pseudo is Projector augmented-wave + core cor, Zval = 21.0
     Generated using ATOMPAW code
     Shape of augmentation charge: BESSEL
     Using radial grid of 1114 points,  8 beta functions with: 
                l(1) =   0
                l(2) =   0
                l(3) =   1
                l(4) =   1
                l(5) =   2
                l(6) =   2
                l(7) =   3
                l(8) =   3
     Q(r) pseudized with 0 coefficients 


     PseudoPot. # 4 for Rb read from file:
     /mnt/d/DeepESense/pseudo/SSSP_1.3.0_PBE_efficiency/Rb_ONCV_PBE-1.0.oncvpsp.upf
     MD5 check sum: 55a5172d6bfbce6759a58e35d43f6aa9
     Pseudo is Norm-conserving, Zval =  9.0
     Generated using ONCVPSP code by D. R. Hamann
     Using radial grid of 2308 points,  6 beta functions with: 
                l(1) =   0
                l(2) =   0
                l(3) =   1
                l(4) =   1
                l(5) =   2
                l(6) =   2

     atomic species   valence    mass     pseudopotential
     Be                4.00     9.01220     Be( 1.00)
     F                 7.00    18.99840     F ( 1.00)
     Ho               21.00   164.93030     Ho( 1.00)
     Rb                9.00    85.46780     Rb( 1.00)

      4 Sym. Ops., with inversion, found ( 2 have fractional translation)


                                    s                        frac. trans.

      isym =  1     identity                                     

 cryst.   s( 1) = (     1          0          0      )
                  (     0          1          0      )
                  (     0          0          1      )

 cart.    s( 1) = (  1.0000000  0.0000000  0.0000000 )
                  (  0.0000000  1.0000000 -0.0000000 )
                  (  0.0000000  0.0000000  1.0000000 )


      isym =  2     180 deg rotation - cart. axis [1,0,0]        

 cryst.   s( 2) = (    -1          0          0      )    f =( -0.0000000 )
                  (     0          1          0      )       (  0.5000000 )
                  (     0          0         -1      )       (  0.0000000 )

 cart.    s( 2) = (  1.0000000  0.0000000  0.0000000 )    f =(  0.4490161 )
                  (  0.0000000 -1.0000000  0.0000000 )       ( -0.0000000 )
                  (  0.0000000  0.0000000 -1.0000000 )       ( -0.0000000 )


      isym =  3     inversion                                    

 cryst.   s( 3) = (    -1          0          0      )
                  (     0         -1          0      )
                  (     0          0         -1      )

 cart.    s( 3) = ( -1.0000000  0.0000000  0.0000000 )
                  (  0.0000000 -1.0000000  0.0000000 )
                  (  0.0000000  0.0000000 -1.0000000 )


      isym =  4     inv. 180 deg rotation - cart. axis [1,0,0]   

 cryst.   s( 4) = (     1          0          0      )    f =(  0.0000000 )
                  (     0         -1          0      )       (  0.5000000 )
                  (     0          0          1      )       (  0.0000000 )

 cart.    s( 4) = ( -1.0000000  0.0000000  0.0000000 )    f =(  0.4490161 )
                  (  0.0000000  1.0000000 -0.0000000 )       (  0.0000000 )
                  (  0.0000000  0.0000000  1.0000000 )       (  0.0000000 )


   Cartesian axes

     site n.     atom                  positions (alat units)
         1        Rb     tau(   1) = (   0.6735241   0.5769421  -0.7965608  )
         2        Rb     tau(   2) = (   0.2245080  -0.0156368  -0.2114238  )
         3        Ho     tau(   3) = (   0.6735241   0.5301821  -0.1827305  )
         4        Ho     tau(   4) = (   0.2245080   0.0311232  -0.8252541  )
         5        Be     tau(   5) = (   0.6735241   0.0295012  -0.4698428  )
         6        Be     tau(   6) = (   0.2245080   0.5318041  -0.5381418  )
         7        F      tau(   7) = (   0.4801463  -0.0224020  -0.6011862  )
         8        F      tau(   8) = (   0.4178858   0.5837074  -0.4067984  )
         9        F      tau(   9) = (   0.0311303   0.5837074  -0.4067984  )
        10        F      tau(  10) = (   0.8669018  -0.0224020  -0.6011862  )
        11        F      tau(  11) = (   0.6735241   0.2589144  -0.4046615  )
        12        F      tau(  12) = (   0.2245080   0.3023909  -0.6033231  )
        13        F      tau(  13) = (   0.4498153   0.3126370  -0.0327766  )
        14        F      tau(  14) = (   0.4482168   0.2486684  -0.9752080  )
        15        F      tau(  15) = (   0.0007992   0.2486684  -0.9752080  )
        16        F      tau(  16) = (   0.8972329   0.3126370  -0.0327766  )
        17        F      tau(  17) = (   0.6735241  -0.1108309  -0.2702679  )
        18        F      tau(  18) = (   0.2245080   0.6721362  -0.7377167  )

   Crystallographic axes

     site n.     atom                  positions (cryst. coord.)
         1        Rb     tau(   1) = (  0.9236210  0.7500000  0.7902510  )
         2        Rb     tau(   2) = (  0.0763790  0.2500000  0.2097490  )
         3        Ho     tau(   3) = (  0.6097100  0.7500000  0.1812830  )
         4        Ho     tau(   4) = (  0.3902900  0.2500000  0.8187170  )
         5        Be     tau(   5) = (  0.2339860  0.7500000  0.4661210  )
         6        Be     tau(   6) = (  0.7660140  0.2500000  0.5338790  )
         7        F      tau(   7) = (  0.2392460  0.5346650  0.5964240  )
         8        F      tau(   8) = (  0.7607540  0.4653350  0.4035760  )
         9        F      tau(   9) = (  0.7607540  0.0346650  0.4035760  )
        10        F      tau(  10) = (  0.2392460  0.9653350  0.5964240  )
        11        F      tau(  11) = (  0.4350310  0.7500000  0.4014560  )
        12        F      tau(  12) = (  0.5649690  0.2500000  0.5985440  )
        13        F      tau(  13) = (  0.3269020  0.5008900  0.0325170  )
        14        F      tau(  14) = (  0.6730980  0.4991100  0.9674830  )
        15        F      tau(  15) = (  0.6730980  0.0008900  0.9674830  )
        16        F      tau(  16) = (  0.3269020  0.9991100  0.0325170  )
        17        F      tau(  17) = (  0.0067950  0.7500000  0.2681270  )
        18        F      tau(  18) = (  0.9932050  0.2500000  0.7318730  )

     number of k points=   145  Marzari-Vanderbilt smearing, width (Ry)=  0.0050
                       cart. coord. in units 2pi/alat
        k(    1) = (   0.0000000   0.0000000   0.0000000), wk =   0.0039683
        k(    2) = (   0.0000000   0.0000000  -0.1417255), wk =   0.0079365
        k(    3) = (   0.0000000   0.0000000  -0.2834510), wk =   0.0079365
        k(    4) = (   0.0000000   0.0000000  -0.4251766), wk =   0.0079365
        k(    5) = (   0.1237273   0.0000000   0.0000000), wk =   0.0079365
        k(    6) = (   0.1237273   0.0000000  -0.1417255), wk =   0.0158730
        k(    7) = (   0.1237273   0.0000000  -0.2834510), wk =   0.0158730
        k(    8) = (   0.1237273   0.0000000  -0.4251766), wk =   0.0158730
        k(    9) = (   0.2474546   0.0000000   0.0000000), wk =   0.0079365
        k(   10) = (   0.2474546   0.0000000  -0.1417255), wk =   0.0158730
        k(   11) = (   0.2474546   0.0000000  -0.2834510), wk =   0.0158730
        k(   12) = (   0.2474546   0.0000000  -0.4251766), wk =   0.0158730
        k(   13) = (   0.3711820   0.0000000   0.0000000), wk =   0.0079365
        k(   14) = (   0.3711820   0.0000000  -0.1417255), wk =   0.0158730
        k(   15) = (   0.3711820   0.0000000  -0.2834510), wk =   0.0158730
        k(   16) = (   0.3711820   0.0000000  -0.4251766), wk =   0.0158730
        k(   17) = (   0.4949093   0.0000000   0.0000000), wk =   0.0079365
        k(   18) = (   0.4949093   0.0000000  -0.1417255), wk =   0.0158730
        k(   19) = (   0.4949093   0.0000000  -0.2834510), wk =   0.0158730
        k(   20) = (   0.4949093   0.0000000  -0.4251766), wk =   0.0158730
        k(   21) = (   0.0000000   0.1250000  -0.0544025), wk =   0.0079365
        k(   22) = (   0.0000000   0.1250000  -0.1961280), wk =   0.0079365
        k(   23) = (   0.0000000   0.1250000  -0.3378535), wk =   0.0079365
        k(   24) = (   0.0000000   0.1250000  -0.4795790), wk =   0.0079365
        k(   25) = (   0.0000000   0.1250000   0.3707741), wk =   0.0079365
        k(   26) = (   0.0000000   0.1250000   0.2290486), wk =   0.0079365
        k(   27) = (   0.0000000   0.1250000   0.0873231), wk =   0.0079365
        k(   28) = (   0.1237273   0.1250000  -0.0544025), wk =   0.0158730
        k(   29) = (   0.1237273   0.1250000  -0.1961280), wk =   0.0158730
        k(   30) = (   0.1237273   0.1250000  -0.3378535), wk =   0.0158730
        k(   31) = (   0.1237273   0.1250000  -0.4795790), wk =   0.0158730
        k(   32) = (   0.1237273   0.1250000   0.3707741), wk =   0.0158730
        k(   33) = (   0.1237273   0.1250000   0.2290486), wk =   0.0158730
        k(   34) = (   0.1237273   0.1250000   0.0873231), wk =   0.0158730
        k(   35) = (   0.2474546   0.1250000  -0.0544025), wk =   0.0158730
        k(   36) = (   0.2474546   0.1250000  -0.1961280), wk =   0.0158730
        k(   37) = (   0.2474546   0.1250000  -0.3378535), wk =   0.0158730
        k(   38) = (   0.2474546   0.1250000  -0.4795790), wk =   0.0158730
        k(   39) = (   0.2474546   0.1250000   0.3707741), wk =   0.0158730
        k(   40) = (   0.2474546   0.1250000   0.2290486), wk =   0.0158730
        k(   41) = (   0.2474546   0.1250000   0.0873231), wk =   0.0158730
        k(   42) = (   0.3711820   0.1250000  -0.0544025), wk =   0.0158730
        k(   43) = (   0.3711820   0.1250000  -0.1961280), wk =   0.0158730
        k(   44) = (   0.3711820   0.1250000  -0.3378535), wk =   0.0158730
        k(   45) = (   0.3711820   0.1250000  -0.4795790), wk =   0.0158730
        k(   46) = (   0.3711820   0.1250000   0.3707741), wk =   0.0158730
        k(   47) = (   0.3711820   0.1250000   0.2290486), wk =   0.0158730
        k(   48) = (   0.3711820   0.1250000   0.0873231), wk =   0.0158730
        k(   49) = (   0.4949093   0.1250000  -0.0544025), wk =   0.0158730
        k(   50) = (   0.4949093   0.1250000  -0.1961280), wk =   0.0158730
        k(   51) = (   0.4949093   0.1250000  -0.3378535), wk =   0.0158730
        k(   52) = (   0.4949093   0.1250000  -0.4795790), wk =   0.0158730
        k(   53) = (   0.4949093   0.1250000   0.3707741), wk =   0.0158730
        k(   54) = (   0.4949093   0.1250000   0.2290486), wk =   0.0158730
        k(   55) = (   0.4949093   0.1250000   0.0873231), wk =   0.0158730
        k(   56) = (   0.0000000   0.2500000  -0.1088049), wk =   0.0079365
        k(   57) = (   0.0000000   0.2500000  -0.2505304), wk =   0.0079365
        k(   58) = (   0.0000000   0.2500000  -0.3922559), wk =   0.0079365
        k(   59) = (   0.0000000   0.2500000  -0.5339815), wk =   0.0079365
        k(   60) = (   0.0000000   0.2500000   0.3163717), wk =   0.0079365
        k(   61) = (   0.0000000   0.2500000   0.1746461), wk =   0.0079365
        k(   62) = (   0.0000000   0.2500000   0.0329206), wk =   0.0079365
        k(   63) = (   0.1237273   0.2500000  -0.1088049), wk =   0.0158730
        k(   64) = (   0.1237273   0.2500000  -0.2505304), wk =   0.0158730
        k(   65) = (   0.1237273   0.2500000  -0.3922559), wk =   0.0158730
        k(   66) = (   0.1237273   0.2500000  -0.5339815), wk =   0.0158730
        k(   67) = (   0.1237273   0.2500000   0.3163717), wk =   0.0158730
        k(   68) = (   0.1237273   0.2500000   0.1746461), wk =   0.0158730
        k(   69) = (   0.1237273   0.2500000   0.0329206), wk =   0.0158730
        k(   70) = (   0.2474546   0.2500000  -0.1088049), wk =   0.0158730
        k(   71) = (   0.2474546   0.2500000  -0.2505304), wk =   0.0158730
        k(   72) = (   0.2474546   0.2500000  -0.3922559), wk =   0.0158730
        k(   73) = (   0.2474546   0.2500000  -0.5339815), wk =   0.0158730
        k(   74) = (   0.2474546   0.2500000   0.3163717), wk =   0.0158730
        k(   75) = (   0.2474546   0.2500000   0.1746461), wk =   0.0158730
        k(   76) = (   0.2474546   0.2500000   0.0329206), wk =   0.0158730
        k(   77) = (   0.3711820   0.2500000  -0.1088049), wk =   0.0158730
        k(   78) = (   0.3711820   0.2500000  -0.2505304), wk =   0.0158730
        k(   79) = (   0.3711820   0.2500000  -0.3922559), wk =   0.0158730
        k(   80) = (   0.3711820   0.2500000  -0.5339815), wk =   0.0158730
        k(   81) = (   0.3711820   0.2500000   0.3163717), wk =   0.0158730
        k(   82) = (   0.3711820   0.2500000   0.1746461), wk =   0.0158730
        k(   83) = (   0.3711820   0.2500000   0.0329206), wk =   0.0158730
        k(   84) = (   0.4949093   0.2500000  -0.1088049), wk =   0.0158730
        k(   85) = (   0.4949093   0.2500000  -0.2505304), wk =   0.0158730
        k(   86) = (   0.4949093   0.2500000  -0.3922559), wk =   0.0158730
        k(   87) = (   0.4949093   0.2500000  -0.5339815), wk =   0.0158730
        k(   88) = (   0.4949093   0.2500000   0.3163717), wk =   0.0158730
        k(   89) = (   0.4949093   0.2500000   0.1746461), wk =   0.0158730
        k(   90) = (   0.4949093   0.2500000   0.0329206), wk =   0.0158730
        k(   91) = (   0.0000000   0.3750000  -0.1632074), wk =   0.0079365
        k(   92) = (   0.0000000   0.3750000  -0.3049329), wk =   0.0079365
        k(   93) = (   0.0000000   0.3750000  -0.4466584), wk =   0.0079365
        k(   94) = (   0.0000000   0.3750000  -0.5883839), wk =   0.0079365
        k(   95) = (   0.0000000   0.3750000   0.2619692), wk =   0.0079365
        k(   96) = (   0.0000000   0.3750000   0.1202437), wk =   0.0079365
        k(   97) = (   0.0000000   0.3750000  -0.0214818), wk =   0.0079365
        k(   98) = (   0.1237273   0.3750000  -0.1632074), wk =   0.0158730
        k(   99) = (   0.1237273   0.3750000  -0.3049329), wk =   0.0158730
        k(  100) = (   0.1237273   0.3750000  -0.4466584), wk =   0.0158730
        k(  101) = (   0.1237273   0.3750000  -0.5883839), wk =   0.0158730
        k(  102) = (   0.1237273   0.3750000   0.2619692), wk =   0.0158730
        k(  103) = (   0.1237273   0.3750000   0.1202437), wk =   0.0158730
        k(  104) = (   0.1237273   0.3750000  -0.0214818), wk =   0.0158730
        k(  105) = (   0.2474546   0.3750000  -0.1632074), wk =   0.0158730
        k(  106) = (   0.2474546   0.3750000  -0.3049329), wk =   0.0158730
        k(  107) = (   0.2474546   0.3750000  -0.4466584), wk =   0.0158730
        k(  108) = (   0.2474546   0.3750000  -0.5883839), wk =   0.0158730
        k(  109) = (   0.2474546   0.3750000   0.2619692), wk =   0.0158730
        k(  110) = (   0.2474546   0.3750000   0.1202437), wk =   0.0158730
        k(  111) = (   0.2474546   0.3750000  -0.0214818), wk =   0.0158730
        k(  112) = (   0.3711820   0.3750000  -0.1632074), wk =   0.0158730
        k(  113) = (   0.3711820   0.3750000  -0.3049329), wk =   0.0158730
        k(  114) = (   0.3711820   0.3750000  -0.4466584), wk =   0.0158730
        k(  115) = (   0.3711820   0.3750000  -0.5883839), wk =   0.0158730
        k(  116) = (   0.3711820   0.3750000   0.2619692), wk =   0.0158730
        k(  117) = (   0.3711820   0.3750000   0.1202437), wk =   0.0158730
        k(  118) = (   0.3711820   0.3750000  -0.0214818), wk =   0.0158730
        k(  119) = (   0.4949093   0.3750000  -0.1632074), wk =   0.0158730
        k(  120) = (   0.4949093   0.3750000  -0.3049329), wk =   0.0158730
        k(  121) = (   0.4949093   0.3750000  -0.4466584), wk =   0.0158730
        k(  122) = (   0.4949093   0.3750000  -0.5883839), wk =   0.0158730
        k(  123) = (   0.4949093   0.3750000   0.2619692), wk =   0.0158730
        k(  124) = (   0.4949093   0.3750000   0.1202437), wk =   0.0158730
        k(  125) = (   0.4949093   0.3750000  -0.0214818), wk =   0.0158730
        k(  126) = (   0.0000000  -0.5000000   0.2176098), wk =   0.0039683
        k(  127) = (   0.0000000  -0.5000000   0.0758843), wk =   0.0079365
        k(  128) = (   0.0000000  -0.5000000  -0.0658412), wk =   0.0079365
        k(  129) = (   0.0000000  -0.5000000  -0.2075667), wk =   0.0079365
        k(  130) = (   0.1237273  -0.5000000   0.2176098), wk =   0.0079365
        k(  131) = (   0.1237273  -0.5000000   0.0758843), wk =   0.0158730
        k(  132) = (   0.1237273  -0.5000000  -0.0658412), wk =   0.0158730
        k(  133) = (   0.1237273  -0.5000000  -0.2075667), wk =   0.0158730
        k(  134) = (   0.2474546  -0.5000000   0.2176098), wk =   0.0079365
        k(  135) = (   0.2474546  -0.5000000   0.0758843), wk =   0.0158730
        k(  136) = (   0.2474546  -0.5000000  -0.0658412), wk =   0.0158730
        k(  137) = (   0.2474546  -0.5000000  -0.2075667), wk =   0.0158730
        k(  138) = (   0.3711820  -0.5000000   0.2176098), wk =   0.0079365
        k(  139) = (   0.3711820  -0.5000000   0.0758843), wk =   0.0158730
        k(  140) = (   0.3711820  -0.5000000  -0.0658412), wk =   0.0158730
        k(  141) = (   0.3711820  -0.5000000  -0.2075667), wk =   0.0158730
        k(  142) = (   0.4949093  -0.5000000   0.2176098), wk =   0.0079365
        k(  143) = (   0.4949093  -0.5000000   0.0758843), wk =   0.0158730
        k(  144) = (   0.4949093  -0.5000000  -0.0658412), wk =   0.0158730
        k(  145) = (   0.4949093  -0.5000000  -0.2075667), wk =   0.0158730

                       cryst. coord.
        k(    1) = (   0.0000000   0.0000000   0.0000000), wk =   0.0039683
        k(    2) = (   0.0000000   0.0000000   0.1428571), wk =   0.0079365
        k(    3) = (   0.0000000   0.0000000   0.2857143), wk =   0.0079365
        k(    4) = (   0.0000000   0.0000000   0.4285714), wk =   0.0079365
        k(    5) = (   0.0000000   0.1111111   0.0000000), wk =   0.0079365
        k(    6) = (   0.0000000   0.1111111   0.1428571), wk =   0.0158730
        k(    7) = (   0.0000000   0.1111111   0.2857143), wk =   0.0158730
        k(    8) = (   0.0000000   0.1111111   0.4285714), wk =   0.0158730
        k(    9) = (   0.0000000   0.2222222   0.0000000), wk =   0.0079365
        k(   10) = (   0.0000000   0.2222222   0.1428571), wk =   0.0158730
        k(   11) = (   0.0000000   0.2222222   0.2857143), wk =   0.0158730
        k(   12) = (   0.0000000   0.2222222   0.4285714), wk =   0.0158730
        k(   13) = (   0.0000000   0.3333333   0.0000000), wk =   0.0079365
        k(   14) = (   0.0000000   0.3333333   0.1428571), wk =   0.0158730
        k(   15) = (   0.0000000   0.3333333   0.2857143), wk =   0.0158730
        k(   16) = (   0.0000000   0.3333333   0.4285714), wk =   0.0158730
        k(   17) = (   0.0000000   0.4444444   0.0000000), wk =   0.0079365
        k(   18) = (   0.0000000   0.4444444   0.1428571), wk =   0.0158730
        k(   19) = (   0.0000000   0.4444444   0.2857143), wk =   0.0158730
        k(   20) = (   0.0000000   0.4444444   0.4285714), wk =   0.0158730
        k(   21) = (   0.1250000   0.0000000  -0.0000000), wk =   0.0079365
        k(   22) = (   0.1250000   0.0000000   0.1428571), wk =   0.0079365
        k(   23) = (   0.1250000   0.0000000   0.2857143), wk =   0.0079365
        k(   24) = (   0.1250000   0.0000000   0.4285714), wk =   0.0079365
        k(   25) = (   0.1250000   0.0000000  -0.4285714), wk =   0.0079365
        k(   26) = (   0.1250000   0.0000000  -0.2857143), wk =   0.0079365
        k(   27) = (   0.1250000   0.0000000  -0.1428571), wk =   0.0079365
        k(   28) = (   0.1250000   0.1111111  -0.0000000), wk =   0.0158730
        k(   29) = (   0.1250000   0.1111111   0.1428571), wk =   0.0158730
        k(   30) = (   0.1250000   0.1111111   0.2857143), wk =   0.0158730
        k(   31) = (   0.1250000   0.1111111   0.4285714), wk =   0.0158730
        k(   32) = (   0.1250000   0.1111111  -0.4285714), wk =   0.0158730
        k(   33) = (   0.1250000   0.1111111  -0.2857143), wk =   0.0158730
        k(   34) = (   0.1250000   0.1111111  -0.1428571), wk =   0.0158730
        k(   35) = (   0.1250000   0.2222222  -0.0000000), wk =   0.0158730
        k(   36) = (   0.1250000   0.2222222   0.1428571), wk =   0.0158730
        k(   37) = (   0.1250000   0.2222222   0.2857143), wk =   0.0158730
        k(   38) = (   0.1250000   0.2222222   0.4285714), wk =   0.0158730
        k(   39) = (   0.1250000   0.2222222  -0.4285714), wk =   0.0158730
        k(   40) = (   0.1250000   0.2222222  -0.2857143), wk =   0.0158730
        k(   41) = (   0.1250000   0.2222222  -0.1428571), wk =   0.0158730
        k(   42) = (   0.1250000   0.3333333  -0.0000000), wk =   0.0158730
        k(   43) = (   0.1250000   0.3333333   0.1428571), wk =   0.0158730
        k(   44) = (   0.1250000   0.3333333   0.2857143), wk =   0.0158730
        k(   45) = (   0.1250000   0.3333333   0.4285714), wk =   0.0158730
        k(   46) = (   0.1250000   0.3333333  -0.4285714), wk =   0.0158730
        k(   47) = (   0.1250000   0.3333333  -0.2857143), wk =   0.0158730
        k(   48) = (   0.1250000   0.3333333  -0.1428571), wk =   0.0158730
        k(   49) = (   0.1250000   0.4444444  -0.0000000), wk =   0.0158730
        k(   50) = (   0.1250000   0.4444444   0.1428571), wk =   0.0158730
        k(   51) = (   0.1250000   0.4444444   0.2857143), wk =   0.0158730
        k(   52) = (   0.1250000   0.4444444   0.4285714), wk =   0.0158730
        k(   53) = (   0.1250000   0.4444444  -0.4285714), wk =   0.0158730
        k(   54) = (   0.1250000   0.4444444  -0.2857143), wk =   0.0158730
        k(   55) = (   0.1250000   0.4444444  -0.1428571), wk =   0.0158730
        k(   56) = (   0.2500000   0.0000000  -0.0000000), wk =   0.0079365
        k(   57) = (   0.2500000   0.0000000   0.1428571), wk =   0.0079365
        k(   58) = (   0.2500000   0.0000000   0.2857143), wk =   0.0079365
        k(   59) = (   0.2500000   0.0000000   0.4285714), wk =   0.0079365
        k(   60) = (   0.2500000   0.0000000  -0.4285714), wk =   0.0079365
        k(   61) = (   0.2500000   0.0000000  -0.2857143), wk =   0.0079365
        k(   62) = (   0.2500000   0.0000000  -0.1428571), wk =   0.0079365
        k(   63) = (   0.2500000   0.1111111  -0.0000000), wk =   0.0158730
        k(   64) = (   0.2500000   0.1111111   0.1428571), wk =   0.0158730
        k(   65) = (   0.2500000   0.1111111   0.2857143), wk =   0.0158730
        k(   66) = (   0.2500000   0.1111111   0.4285714), wk =   0.0158730
        k(   67) = (   0.2500000   0.1111111  -0.4285714), wk =   0.0158730
        k(   68) = (   0.2500000   0.1111111  -0.2857143), wk =   0.0158730
        k(   69) = (   0.2500000   0.1111111  -0.1428571), wk =   0.0158730
        k(   70) = (   0.2500000   0.2222222  -0.0000000), wk =   0.0158730
        k(   71) = (   0.2500000   0.2222222   0.1428571), wk =   0.0158730
        k(   72) = (   0.2500000   0.2222222   0.2857143), wk =   0.0158730
        k(   73) = (   0.2500000   0.2222222   0.4285714), wk =   0.0158730
        k(   74) = (   0.2500000   0.2222222  -0.4285714), wk =   0.0158730
        k(   75) = (   0.2500000   0.2222222  -0.2857143), wk =   0.0158730
        k(   76) = (   0.2500000   0.2222222  -0.1428571), wk =   0.0158730
        k(   77) = (   0.2500000   0.3333333  -0.0000000), wk =   0.0158730
        k(   78) = (   0.2500000   0.3333333   0.1428571), wk =   0.0158730
        k(   79) = (   0.2500000   0.3333333   0.2857143), wk =   0.0158730
        k(   80) = (   0.2500000   0.3333333   0.4285714), wk =   0.0158730
        k(   81) = (   0.2500000   0.3333333  -0.4285714), wk =   0.0158730
        k(   82) = (   0.2500000   0.3333333  -0.2857143), wk =   0.0158730
        k(   83) = (   0.2500000   0.3333333  -0.1428571), wk =   0.0158730
        k(   84) = (   0.2500000   0.4444444  -0.0000000), wk =   0.0158730
        k(   85) = (   0.2500000   0.4444444   0.1428571), wk =   0.0158730
        k(   86) = (   0.2500000   0.4444444   0.2857143), wk =   0.0158730
        k(   87) = (   0.2500000   0.4444444   0.4285714), wk =   0.0158730
        k(   88) = (   0.2500000   0.4444444  -0.4285714), wk =   0.0158730
        k(   89) = (   0.2500000   0.4444444  -0.2857143), wk =   0.0158730
        k(   90) = (   0.2500000   0.4444444  -0.1428571), wk =   0.0158730
        k(   91) = (   0.3750000   0.0000000  -0.0000000), wk =   0.0079365
        k(   92) = (   0.3750000   0.0000000   0.1428571), wk =   0.0079365
        k(   93) = (   0.3750000   0.0000000   0.2857143), wk =   0.0079365
        k(   94) = (   0.3750000   0.0000000   0.4285714), wk =   0.0079365
        k(   95) = (   0.3750000   0.0000000  -0.4285714), wk =   0.0079365
        k(   96) = (   0.3750000   0.0000000  -0.2857143), wk =   0.0079365
        k(   97) = (   0.3750000   0.0000000  -0.1428571), wk =   0.0079365
        k(   98) = (   0.3750000   0.1111111  -0.0000000), wk =   0.0158730
        k(   99) = (   0.3750000   0.1111111   0.1428571), wk =   0.0158730
        k(  100) = (   0.3750000   0.1111111   0.2857143), wk =   0.0158730
        k(  101) = (   0.3750000   0.1111111   0.4285714), wk =   0.0158730
        k(  102) = (   0.3750000   0.1111111  -0.4285714), wk =   0.0158730
        k(  103) = (   0.3750000   0.1111111  -0.2857143), wk =   0.0158730
        k(  104) = (   0.3750000   0.1111111  -0.1428571), wk =   0.0158730
        k(  105) = (   0.3750000   0.2222222  -0.0000000), wk =   0.0158730
        k(  106) = (   0.3750000   0.2222222   0.1428571), wk =   0.0158730
        k(  107) = (   0.3750000   0.2222222   0.2857143), wk =   0.0158730
        k(  108) = (   0.3750000   0.2222222   0.4285714), wk =   0.0158730
        k(  109) = (   0.3750000   0.2222222  -0.4285714), wk =   0.0158730
        k(  110) = (   0.3750000   0.2222222  -0.2857143), wk =   0.0158730
        k(  111) = (   0.3750000   0.2222222  -0.1428571), wk =   0.0158730
        k(  112) = (   0.3750000   0.3333333  -0.0000000), wk =   0.0158730
        k(  113) = (   0.3750000   0.3333333   0.1428571), wk =   0.0158730
        k(  114) = (   0.3750000   0.3333333   0.2857143), wk =   0.0158730
        k(  115) = (   0.3750000   0.3333333   0.4285714), wk =   0.0158730
        k(  116) = (   0.3750000   0.3333333  -0.4285714), wk =   0.0158730
        k(  117) = (   0.3750000   0.3333333  -0.2857143), wk =   0.0158730
        k(  118) = (   0.3750000   0.3333333  -0.1428571), wk =   0.0158730
        k(  119) = (   0.3750000   0.4444444  -0.0000000), wk =   0.0158730
        k(  120) = (   0.3750000   0.4444444   0.1428571), wk =   0.0158730
        k(  121) = (   0.3750000   0.4444444   0.2857143), wk =   0.0158730
        k(  122) = (   0.3750000   0.4444444   0.4285714), wk =   0.0158730
        k(  123) = (   0.3750000   0.4444444  -0.4285714), wk =   0.0158730
        k(  124) = (   0.3750000   0.4444444  -0.2857143), wk =   0.0158730
        k(  125) = (   0.3750000   0.4444444  -0.1428571), wk =   0.0158730
        k(  126) = (  -0.5000000   0.0000000   0.0000000), wk =   0.0039683
        k(  127) = (  -0.5000000   0.0000000   0.1428571), wk =   0.0079365
        k(  128) = (  -0.5000000   0.0000000   0.2857143), wk =   0.0079365
        k(  129) = (  -0.5000000   0.0000000   0.4285714), wk =   0.0079365
        k(  130) = (  -0.5000000   0.1111111   0.0000000), wk =   0.0079365
        k(  131) = (  -0.5000000   0.1111111   0.1428571), wk =   0.0158730
        k(  132) = (  -0.5000000   0.1111111   0.2857143), wk =   0.0158730
        k(  133) = (  -0.5000000   0.1111111   0.4285714), wk =   0.0158730
        k(  134) = (  -0.5000000   0.2222222   0.0000000), wk =   0.0079365
        k(  135) = (  -0.5000000   0.2222222   0.1428571), wk =   0.0158730
        k(  136) = (  -0.5000000   0.2222222   0.2857143), wk =   0.0158730
        k(  137) = (  -0.5000000   0.2222222   0.4285714), wk =   0.0158730
        k(  138) = (  -0.5000000   0.3333333   0.0000000), wk =   0.0079365
        k(  139) = (  -0.5000000   0.3333333   0.1428571), wk =   0.0158730
        k(  140) = (  -0.5000000   0.3333333   0.2857143), wk =   0.0158730
        k(  141) = (  -0.5000000   0.3333333   0.4285714), wk =   0.0158730
        k(  142) = (  -0.5000000   0.4444444   0.0000000), wk =   0.0079365
        k(  143) = (  -0.5000000   0.4444444   0.1428571), wk =   0.0158730
        k(  144) = (  -0.5000000   0.4444444   0.2857143), wk =   0.0158730
        k(  145) = (  -0.5000000   0.4444444   0.4285714), wk =   0.0158730

     Dense  grid:   303939 G-vectors     FFT dimensions: (  90,  80,  96)

     Smooth grid:   107517 G-vectors     FFT dimensions: (  64,  60,  72)

     Dynamical RAM for                 wfc:       5.38 MB

     Dynamical RAM for     wfc (w. buffer):       5.38 MB

     Dynamical RAM for           str. fact:       2.32 MB

     Dynamical RAM for           local pot:       0.00 MB

     Dynamical RAM for          nlocal pot:       5.74 MB

     Dynamical RAM for                qrad:      16.87 MB

     Dynamical RAM for          rho,v,vnew:       3.72 MB

     Dynamical RAM for           G-vectors:       2.28 MB

     Dynamical RAM for          h,s,v(r/c):       2.02 MB

     Dynamical RAM for          <psi|beta>:       0.72 MB

     Dynamical RAM for                 psi:      10.76 MB

     Dynamical RAM for                hpsi:      10.76 MB

     Dynamical RAM for                spsi:      10.76 MB

     Dynamical RAM for      wfcinit/wfcrot:      11.77 MB

     Dynamical RAM for           addusdens:     328.71 MB

     Estimated static dynamical RAM per process >      42.50 MB

     Estimated max dynamical RAM per process >     371.20 MB

     Estimated total dynamical RAM >       2.90 GB

     The potential is recalculated from file :
     ./pwscf.save/charge-density

     Starting wfcs are  132 randomized atomic wfcs +   78 random wfcs
     Checking if some PAW data can be deallocated... 
       PAW data deallocated on    6 nodes for type:  3

     Band Structure Calculation
     Davidson diagonalization with overlap

     Computing kpt #:     1  of   145
     total cpu time spent up to now is       88.8 secs

     Computing kpt #:     2  of   145
     total cpu time spent up to now is      149.5 secs

     Computing kpt #:     3  of   145
     total cpu time spent up to now is      211.2 secs

     Computing kpt #:     4  of   145
     total cpu time spent up to now is      277.7 secs

     Computing kpt #:     5  of   145
     total cpu time spent up to now is      341.5 secs

     Computing kpt #:     6  of   145
     total cpu time spent up to now is      406.3 secs

     Computing kpt #:     7  of   145
     total cpu time spent up to now is      469.9 secs

     Computing kpt #:     8  of   145
     total cpu time spent up to now is      533.9 secs

     Computing kpt #:     9  of   145
     total cpu time spent up to now is      598.0 secs

     Computing kpt #:    10  of   145
     total cpu time spent up to now is      680.0 secs

     Computing kpt #:    11  of   145
     total cpu time spent up to now is      738.0 secs

     Computing kpt #:    12  of   145
     total cpu time spent up to now is      798.1 secs

     Computing kpt #:    13  of   145
     total cpu time spent up to now is      870.6 secs

     Computing kpt #:    14  of   145
     total cpu time spent up to now is      934.6 secs

     Computing kpt #:    15  of   145
     total cpu time spent up to now is      990.8 secs

     Computing kpt #:    16  of   145
     total cpu time spent up to now is     1009.2 secs

     Computing kpt #:    17  of   145
     total cpu time spent up to now is     1057.7 secs

     Computing kpt #:    18  of   145
     total cpu time spent up to now is     1119.0 secs

     Computing kpt #:    19  of   145
     total cpu time spent up to now is     1179.4 secs

     Computing kpt #:    20  of   145
     total cpu time spent up to now is     1244.3 secs

     Computing kpt #:    21  of   145
     total cpu time spent up to now is     1334.9 secs

     Computing kpt #:    22  of   145
     total cpu time spent up to now is     1443.2 secs

     Computing kpt #:    23  of   145
     total cpu time spent up to now is     1552.1 secs

     Computing kpt #:    24  of   145
     total cpu time spent up to now is     1645.5 secs

     Computing kpt #:    25  of   145
     total cpu time spent up to now is     1716.8 secs

     Computing kpt #:    26  of   145
     total cpu time spent up to now is     1787.3 secs

     Computing kpt #:    27  of   145
     total cpu time spent up to now is     1852.9 secs

     Computing kpt #:    28  of   145
     total cpu time spent up to now is     1920.4 secs

     Computing kpt #:    29  of   145
     total cpu time spent up to now is     1984.8 secs

     Computing kpt #:    30  of   145
     total cpu time spent up to now is     2050.8 secs

     Computing kpt #:    31  of   145
     total cpu time spent up to now is     2116.0 secs

     Computing kpt #:    32  of   145
     total cpu time spent up to now is     2159.5 secs

     Computing kpt #:    33  of   145
     total cpu time spent up to now is     2224.9 secs

     Computing kpt #:    34  of   145
     total cpu time spent up to now is     2290.8 secs

     Computing kpt #:    35  of   145
     total cpu time spent up to now is     2355.2 secs

     Computing kpt #:    36  of   145
     total cpu time spent up to now is     2427.0 secs

     Computing kpt #:    37  of   145
     total cpu time spent up to now is     2492.1 secs

     Computing kpt #:    38  of   145
     total cpu time spent up to now is     2556.3 secs

     Computing kpt #:    39  of   145
     total cpu time spent up to now is     2619.8 secs

     Computing kpt #:    40  of   145
     total cpu time spent up to now is     2689.5 secs

     Computing kpt #:    41  of   145
     total cpu time spent up to now is     2755.9 secs

     Computing kpt #:    42  of   145
     total cpu time spent up to now is     2823.9 secs

     Computing kpt #:    43  of   145
     total cpu time spent up to now is     2889.7 secs

     Computing kpt #:    44  of   145
     total cpu time spent up to now is     2955.4 secs

     Computing kpt #:    45  of   145
     total cpu time spent up to now is     3024.8 secs

     Computing kpt #:    46  of   145
     total cpu time spent up to now is     3088.5 secs

     Computing kpt #:    47  of   145
     total cpu time spent up to now is     3156.6 secs

     Computing kpt #:    48  of   145
     total cpu time spent up to now is     3225.3 secs

     Computing kpt #:    49  of   145
     total cpu time spent up to now is     3295.9 secs

     Computing kpt #:    50  of   145
     total cpu time spent up to now is     3364.7 secs

     Computing kpt #:    51  of   145
     total cpu time spent up to now is     3431.4 secs

     Computing kpt #:    52  of   145
     total cpu time spent up to now is     3499.1 secs

     Computing kpt #:    53  of   145
     total cpu time spent up to now is     3563.6 secs

     Computing kpt #:    54  of   145
     total cpu time spent up to now is     3631.1 secs

     Computing kpt #:    55  of   145
     total cpu time spent up to now is     3698.2 secs

     Computing kpt #:    56  of   145
     total cpu time spent up to now is     3764.5 secs

     Computing kpt #:    57  of   145
     total cpu time spent up to now is     3830.1 secs

     Computing kpt #:    58  of   145
     total cpu time spent up to now is     3893.8 secs

     Computing kpt #:    59  of   145
     total cpu time spent up to now is     3957.6 secs

     Computing kpt #:    60  of   145
     total cpu time spent up to now is     4003.1 secs

     Computing kpt #:    61  of   145
     total cpu time spent up to now is     4073.5 secs

     Computing kpt #:    62  of   145
     total cpu time spent up to now is     4141.7 secs

     Computing kpt #:    63  of   145
     total cpu time spent up to now is     4209.3 secs

     Computing kpt #:    64  of   145
     total cpu time spent up to now is     4282.5 secs

     Computing kpt #:    65  of   145
     total cpu time spent up to now is     4377.5 secs

     Computing kpt #:    66  of   145
     total cpu time spent up to now is     4462.1 secs

     Computing kpt #:    67  of   145
     total cpu time spent up to now is     4525.4 secs

     Computing kpt #:    68  of   145
     total cpu time spent up to now is     4589.7 secs

     Computing kpt #:    69  of   145
     total cpu time spent up to now is     4663.2 secs

     Computing kpt #:    70  of   145
     total cpu time spent up to now is     4729.8 secs

     Computing kpt #:    71  of   145
     total cpu time spent up to now is     4798.8 secs

     Computing kpt #:    72  of   145
     total cpu time spent up to now is     4864.0 secs

     Computing kpt #:    73  of   145
     total cpu time spent up to now is     4933.0 secs

     Computing kpt #:    74  of   145
     total cpu time spent up to now is     5002.9 secs

     Computing kpt #:    75  of   145
     total cpu time spent up to now is     5070.2 secs

     Computing kpt #:    76  of   145
     total cpu time spent up to now is     5139.6 secs

     Computing kpt #:    77  of   145
     total cpu time spent up to now is     5209.7 secs

     Computing kpt #:    78  of   145
     total cpu time spent up to now is     5284.7 secs

     Computing kpt #:    79  of   145
     total cpu time spent up to now is     5356.9 secs

     Computing kpt #:    80  of   145
     total cpu time spent up to now is     5426.4 secs

     Computing kpt #:    81  of   145
     total cpu time spent up to now is     5494.0 secs

     Computing kpt #:    82  of   145
     total cpu time spent up to now is     5565.9 secs

     Computing kpt #:    83  of   145
     total cpu time spent up to now is     5630.3 secs

     Computing kpt #:    84  of   145
     total cpu time spent up to now is     5705.2 secs

     Computing kpt #:    85  of   145
     total cpu time spent up to now is     5779.4 secs

     Computing kpt #:    86  of   145
     total cpu time spent up to now is     5847.9 secs

     Computing kpt #:    87  of   145
     total cpu time spent up to now is     5922.2 secs

     Computing kpt #:    88  of   145
     total cpu time spent up to now is     5995.6 secs

     Computing kpt #:    89  of   145
     total cpu time spent up to now is     6066.5 secs

     Computing kpt #:    90  of   145
     total cpu time spent up to now is     6153.2 secs

     Computing kpt #:    91  of   145
     total cpu time spent up to now is     6222.0 secs

     Computing kpt #:    92  of   145
     total cpu time spent up to now is     6296.0 secs

     Computing kpt #:    93  of   145
     total cpu time spent up to now is     6372.2 secs

     Computing kpt #:    94  of   145
     total cpu time spent up to now is     6444.3 secs

     Computing kpt #:    95  of   145
     total cpu time spent up to now is     6520.7 secs

     Computing kpt #:    96  of   145
     total cpu time spent up to now is     6596.6 secs

     Computing kpt #:    97  of   145
     total cpu time spent up to now is     6637.5 secs

     Computing kpt #:    98  of   145
     total cpu time spent up to now is     6712.4 secs

     Computing kpt #:    99  of   145
     total cpu time spent up to now is     6789.5 secs

     Computing kpt #:   100  of   145
     total cpu time spent up to now is     6850.9 secs

     Computing kpt #:   101  of   145
     total cpu time spent up to now is     6926.0 secs

     Computing kpt #:   102  of   145
     total cpu time spent up to now is     7000.2 secs

     Computing kpt #:   103  of   145
     total cpu time spent up to now is     7073.8 secs

     Computing kpt #:   104  of   145
     total cpu time spent up to now is     7130.4 secs

     Computing kpt #:   105  of   145
     total cpu time spent up to now is     7208.3 secs

     Computing kpt #:   106  of   145
     total cpu time spent up to now is     7276.2 secs

     Computing kpt #:   107  of   145
     total cpu time spent up to now is     7351.1 secs

     Computing kpt #:   108  of   145
     total cpu time spent up to now is     7423.5 secs

     Computing kpt #:   109  of   145
     total cpu time spent up to now is     7496.2 secs

     Computing kpt #:   110  of   145
     total cpu time spent up to now is     7566.8 secs

     Computing kpt #:   111  of   145
     total cpu time spent up to now is     7642.4 secs

     Computing kpt #:   112  of   145
     total cpu time spent up to now is     7709.9 secs

     Computing kpt #:   113  of   145
     total cpu time spent up to now is     7765.1 secs

     Computing kpt #:   114  of   145
     total cpu time spent up to now is     7833.1 secs

     Computing kpt #:   115  of   145
     total cpu time spent up to now is     7901.2 secs

     Computing kpt #:   116  of   145
     total cpu time spent up to now is     7975.3 secs

     Computing kpt #:   117  of   145
     total cpu time spent up to now is     8052.0 secs

     Computing kpt #:   118  of   145
     total cpu time spent up to now is     8135.5 secs

     Computing kpt #:   119  of   145
     total cpu time spent up to now is     8208.6 secs

     Computing kpt #:   120  of   145
     total cpu time spent up to now is     8281.8 secs

     Computing kpt #:   121  of   145
     total cpu time spent up to now is     8360.1 secs

     Computing kpt #:   122  of   145
     total cpu time spent up to now is     8465.3 secs

     Computing kpt #:   123  of   145
     total cpu time spent up to now is     8538.7 secs

     Computing kpt #:   124  of   145
     total cpu time spent up to now is     8608.7 secs

     Computing kpt #:   125  of   145
     total cpu time spent up to now is     8681.2 secs

     Computing kpt #:   126  of   145
     total cpu time spent up to now is     8757.2 secs

     Computing kpt #:   127  of   145
     total cpu time spent up to now is     8829.2 secs

     Computing kpt #:   128  of   145
     total cpu time spent up to now is     8900.4 secs

     Computing kpt #:   129  of   145
     total cpu time spent up to now is     8971.6 secs

     Computing kpt #:   130  of   145
     total cpu time spent up to now is     9059.8 secs

     Computing kpt #:   131  of   145
     total cpu time spent up to now is     9133.8 secs

     Computing kpt #:   132  of   145
     total cpu time spent up to now is     9212.6 secs

     Computing kpt #:   133  of   145
     total cpu time spent up to now is     9262.0 secs

     Computing kpt #:   134  of   145
     total cpu time spent up to now is     9326.2 secs

     Computing kpt #:   135  of   145
     total cpu time spent up to now is     9399.7 secs

     Computing kpt #:   136  of   145
     total cpu time spent up to now is     9474.8 secs

     Computing kpt #:   137  of   145
     total cpu time spent up to now is     9563.7 secs

     Computing kpt #:   138  of   145
     total cpu time spent up to now is     9645.8 secs

     Computing kpt #:   139  of   145
     total cpu time spent up to now is     9731.5 secs

     Computing kpt #:   140  of   145
     total cpu time spent up to now is     9806.1 secs

     Computing kpt #:   141  of   145
     total cpu time spent up to now is     9879.9 secs

     Computing kpt #:   142  of   145
     total cpu time spent up to now is     9952.1 secs

     Computing kpt #:   143  of   145
     total cpu time spent up to now is    10030.5 secs

     Computing kpt #:   144  of   145
     total cpu time spent up to now is    10110.4 secs

     Computing kpt #:   145  of   145
     total cpu time spent up to now is    10207.8 secs

     ethr =  6.58E-12,  avg # of iterations = 37.4

     total cpu time spent up to now is    10207.9 secs

     End of band structure calculation

          k = 0.0000 0.0000 0.0000 ( 13467 PWs)   bands (ev):

   -92.7609 -92.7609 -41.1096 -41.0986 -19.3725 -19.3179 -18.1524 -18.1454
   -17.7822 -17.7755 -17.6317 -17.3998 -17.3562 -17.2066 -17.1420 -16.9362
   -16.7483 -16.5204 -15.6706 -15.6518 -15.6369 -15.0344 -14.8894 -14.7619
    -3.6376  -3.6080  -3.5078  -3.4843  -3.4760  -3.4447  -0.8170  -0.7456
    -0.3776  -0.1134   0.0381   0.2619   0.2917   0.3203   0.5875   0.6639
     0.8541   1.0035   1.1027   1.1758   1.3016   1.3704   1.4705   1.4975
     1.7479   1.7485   1.9293   2.0178   2.0229   2.0539   2.0851   2.2481
     2.2624   2.3121   2.3998   2.4431   2.5418   2.5607   2.6005   2.6309
     2.6721   2.7379   4.4836   4.5006   4.5072   4.5251   4.5396   4.6051
     4.6386   4.6403   4.6584   4.6809   4.6861   4.6901   4.7112   4.7283
    10.3814  11.6240  11.7681  12.4255  12.4476  12.8000  12.9032  13.3066
    13.4520  13.5480  13.9817  14.0441  14.2808  14.5782  14.5852  14.7757
    14.9103  15.1078  15.1310  15.2111  15.5018  15.8957  16.2104  16.2326
    16.3594  17.3798  17.4210  17.6437  17.8997  18.6535  18.6811  18.9774
    19.2958  19.4837  19.4971  19.5644  19.9972  20.2431  20.4556  21.0134
    21.0896  21.1826  21.7688  21.7751  21.9039  22.0884  22.3819  22.8533
    22.8567  23.7317  23.7780  24.0179  24.1898  24.2814  24.6982  24.8359
    25.1210  25.6081  25.8947  25.9523  26.6110  26.6425  26.6836  27.1244
    27.4682  27.5039  27.8020  28.0056  28.1732  28.3369  28.5640  28.5950
    28.7990  28.8919  29.2185  29.7406  29.7966  29.8438  30.0496  30.1402
    30.2771  30.4774  30.9588  31.2454  31.4676  31.5236  31.5302  31.6089
    31.9879  31.9949  32.5922  32.8394  33.0866  33.4051  33.7380  33.7812
    33.9861  34.0523  34.2740  34.5164  34.7170  34.9112  34.9341  35.1649
    35.6480  35.9815  36.3884  36.3981  36.7545  36.7591  36.9555  37.0830
    37.1269  37.6196  37.6415  37.7628  37.7943  38.0162  38.0308  38.4941
    38.5362  38.6706  38.7789  38.9603  39.3880  39.4648  39.6412  39.7239
    39.9491  40.1947

     occupation numbers 
     1.0000   1.0000   1.0000   1.0000   1.0000   1.0000   1.0000   1.0000
     1.0000   1.0000   1.0000   1.0000   1.0000   1.0000   1.0000   1.0000
     1.0000   1.0000   1.0000   1.0000   1.0000   1.0000   1.0000   1.0000
     1.0000   1.0000   1.0000   1.0000   1.0000   1.0000   1.0000   1.0000
     1.0000   1.0000   1.0000   1.0000   1.0000   1.0000   1.0000   1.0000
     1.0000   1.0000   1.0000   1.0000   1.0000   1.0000   1.0000   1.0000
     1.0000   1.0000   1.0000   1.0000   1.0000   1.0000   1.0000   1.0000
     1.0000   1.0000   1.0000   1.0000   1.0000   1.0000   1.0000   1.0000
     1.0000   1.0000   1.0015   1.0044   1.0063   1.0152   1.0278   1.0707
     0.9021   0.8875   0.7113   0.4649   0.4107   0.3711   0.1958   0.1029
     0.0000   0.0000   0.0000   0.0000   0.0000   0.0000   0.0000   0.0000
     0.0000   0.0000   0.0000   0.0000   0.0000   0.0000   0.0000   0.0000
     0.0000   0.0000   0.0000   0.0000   0.0000   0.0000   0.0000   0.0000
     0.0000   0.0000   0.0000   0.0000   0.0000   0.0000   0.0000   0.0000
     0.0000   0.0000   0.0000   0.0000   0.0000   0.0000   0.0000   0.0000
     0.0000   0.0000   0.0000   0.0000   0.0000   0.0000   0.0000   0.0000
     0.0000   0.0000   0.0000   0.0000   0.0000   0.0000   0.0000   0.0000
     0.0000   0.0000   0.0000   0.0000   0.0000   0.0000   0.0000   0.0000
     0.0000   0.0000   0.0000   0.0000   0.0000   0.0000   0.0000   0.0000
     0.0000   0.0000   0.0000   0.0000   0.0000   0.0000   0.0000   0.0000
     0.0000   0.0000   0.0000   0.0000   0.0000   0.0000   0.0000   0.0000
     0.0000   0.0000   0.0000   0.0000   0.0000   0.0000   0.0000   0.0000
     0.0000   0.0000   0.0000   0.0000   0.0000   0.0000   0.0000   0.0000
     0.0000   0.0000   0.0000   0.0000   0.0000   0.0000   0.0000   0.0000
     0.0000   0.0000   0.0000   0.0000   0.0000   0.0000   0.0000   0.0000
     0.0000   0.0000   0.0000   0.0000   0.0000   0.0000   0.0000   0.0000
     0.0000   0.0000

          k = 0.0000 0.0000-0.1417 ( 13486 PWs)   bands (ev):

   -92.7609 -92.7609 -41.1096 -41.0986 -19.3713 -19.3198 -18.1411 -18.1391
   -17.8069 -17.7833 -17.6436 -17.3906 -17.3529 -17.1854 -17.1326 -16.9400
   -16.7519 -16.5204 -15.6887 -15.6547 -15.6358 -15.0229 -14.8898 -14.7606
    -3.6430  -3.6127  -3.5069  -3.4792  -3.4665  -3.4474  -0.8424  -0.7620
    -0.3545  -0.1167   0.0409   0.2549   0.2736   0.3287   0.6126   0.7199
     0.8850   1.0153   1.0969   1.1815   1.2900   1.3446   1.3745   1.5509
     1.7217   1.7568   1.9509   2.0143   2.0402   2.0504   2.1039   2.2201
     2.2515   2.2956   2.3893   2.4751   2.5180   2.5368   2.6183   2.6322
     2.6694   2.7425   4.4851   4.5003   4.5062   4.5260   4.5403   4.6045
     4.6385   4.6406   4.6551   4.6778   4.6844   4.6934   4.7157   4.7260
    10.5129  11.6419  11.7489  12.4215  12.4655  12.6808  12.9503  13.3540
    13.4858  13.4960  13.9628  14.0494  14.2758  14.3702  14.5549  14.7870
    14.8925  14.9978  15.0808  15.4815  15.5648  15.9586  15.9689  16.2428
    16.6218  17.3642  17.4538  17.6591  18.0183  18.5849  18.6548  18.8895
    18.9368  19.4532  19.6353  19.7785  19.9513  20.0588  20.5768  20.9913
    21.1350  21.1653  21.6701  21.7878  21.8974  22.0256  22.3625  22.9174
    22.9965  23.8156  23.8241  23.9923  24.0431  24.3021  24.6972  24.8966
    25.1986  25.4979  25.8877  26.1632  26.3584  26.6813  26.7823  27.1707
    27.4532  27.5872  27.6293  27.8774  27.9722  28.1898  28.5866  28.7304
    28.9588  28.9810  29.2269  29.2383  29.7088  30.0493  30.3502  30.4247
    30.5584  30.5911  30.8782  31.2192  31.2358  31.3680  31.4660  31.7984
    32.0080  32.1126  32.5784  33.0051  33.0541  33.4621  33.5731  33.8902
    34.1100  34.1292  34.2407  34.3588  34.7940  34.8181  35.1129  35.4255
    35.6162  35.7269  35.9386  36.5003  36.7163  36.7849  36.9288  36.9845
    37.2592  37.3642  37.3664  37.8084  37.8681  38.1012  38.3167  38.4728
    38.6476  38.8017  38.8264  38.9961  39.3475  39.4027  39.6774  39.7253
    39.7284  40.2350

     occupation numbers 
     1.0000   1.0000   1.0000   1.0000   1.0000   1.0000   1.0000   1.0000
     1.0000   1.0000   1.0000   1.0000   1.0000   1.0000   1.0000   1.0000
     1.0000   1.0000   1.0000   1.0000   1.0000   1.0000   1.0000   1.0000
     1.0000   1.0000   1.0000   1.0000   1.0000   1.0000   1.0000   1.0000
     1.0000   1.0000   1.0000   1.0000   1.0000   1.0000   1.0000   1.0000
     1.0000   1.0000   1.0000   1.0000   1.0000   1.0000   1.0000   1.0000
     1.0000   1.0000   1.0000   1.0000   1.0000   1.0000   1.0000   1.0000
     1.0000   1.0000   1.0000   1.0000   1.0000   1.0000   1.0000   1.0000
     1.0000   1.0000   1.0017   1.0043   1.0059   1.0159   1.0286   1.0718
     0.9032   0.8851   0.7455   0.4982   0.4276   0.3389   0.1674   0.1130
     0.0000   0.0000   0.0000   0.0000   0.0000   0.0000   0.0000   0.0000
     0.0000   0.0000   0.0000   0.0000   0.0000   0.0000   0.0000   0.0000
     0.0000   0.0000   0.0000   0.0000   0.0000   0.0000   0.0000   0.0000
     0.0000   0.0000   0.0000   0.0000   0.0000   0.0000   0.0000   0.0000
     0.0000   0.0000   0.0000   0.0000   0.0000   0.0000   0.0000   0.0000
     0.0000   0.0000   0.0000   0.0000   0.0000   0.0000   0.0000   0.0000
     0.0000   0.0000   0.0000   0.0000   0.0000   0.0000   0.0000   0.0000
     0.0000   0.0000   0.0000   0.0000   0.0000   0.0000   0.0000   0.0000
     0.0000   0.0000   0.0000   0.0000   0.0000   0.0000   0.0000   0.0000
     0.0000   0.0000   0.0000   0.0000   0.0000   0.0000   0.0000   0.0000
     0.0000   0.0000   0.0000   0.0000   0.0000   0.0000   0.0000   0.0000
     0.0000   0.0000   0.0000   0.0000   0.0000   0.0000   0.0000   0.0000
     0.0000   0.0000   0.0000   0.0000   0.0000   0.0000   0.0000   0.0000
     0.0000   0.0000   0.0000   0.0000   0.0000   0.0000   0.0000   0.0000
     0.0000   0.0000   0.0000   0.0000   0.0000   0.0000   0.0000   0.0000
     0.0000   0.0000   0.0000   0.0000   0.0000   0.0000   0.0000   0.0000
     0.0000   0.0000

          k = 0.0000 0.0000-0.2835 ( 13455 PWs)   bands (ev):

   -92.7609 -92.7609 -41.1096 -41.0986 -19.3684 -19.3246 -18.1311 -18.1004
   -17.8773 -17.7886 -17.6698 -17.3924 -17.3229 -17.1421 -17.1127 -16.9499
   -16.7602 -16.5204 -15.7279 -15.6612 -15.6335 -14.9990 -14.8908 -14.7575
    -3.6542  -3.6218  -3.5014  -3.4689  -3.4549  -3.4485  -0.8906  -0.7971
    -0.3128  -0.1238   0.0460   0.1940   0.2980   0.3426   0.6878   0.8417
     0.9553   1.0321   1.0981   1.2007   1.2073   1.2753   1.2869   1.6252
     1.6687   1.7690   1.9668   1.9872   2.0515   2.0886   2.0889   2.1454
     2.1943   2.3330   2.4223   2.4635   2.4887   2.5377   2.5886   2.6552
     2.6656   2.7551   4.4890   4.4997   4.5034   4.5280   4.5420   4.6031
     4.6376   4.6413   4.6493   4.6746   4.6806   4.6980   4.7211   4.7243
    10.8768  11.6634  11.7264  12.3847  12.5080  12.5739  12.9537  13.0322
    13.5417  13.6171  13.9167  13.9466  14.2686  14.2814  14.5932  14.6540
    14.8843  15.0051  15.0536  15.6139  15.6363  15.8755  16.0091  16.2097
    17.0527  17.2539  17.5190  17.7691  18.2780  18.4155  18.5264  18.6526
    18.8817  19.2343  19.4573  19.7952  19.9885  20.0785  20.6113  20.8579
    21.2322  21.3348  21.5030  21.6543  21.9238  22.2330  22.3366  22.9268
    23.1899  23.3917  23.6426  23.9228  24.3457  24.3678  24.8214  25.3274
    25.4149  25.4594  25.7036  25.8572  26.2551  26.7714  26.8542  27.3330
    27.3872  27.5479  27.7809  27.8564  28.1192  28.2017  28.4447  28.4510
    28.6434  29.0570  29.1105  29.4764  29.4956  29.8165  30.4326  30.5492
    30.6550  30.8063  30.9919  31.1582  31.2069  31.3856  31.7823  31.9531
    32.2318  32.4417  32.8271  32.9551  33.2352  33.3857  33.4907  33.5353
    33.5630  34.2232  34.4446  34.7637  34.8132  34.9793  35.3741  35.4327
    35.5631  36.0199  36.0247  36.4053  36.4876  36.6475  36.6958  36.8910
    37.0146  37.4654  37.5304  37.6738  37.8182  37.8867  38.0767  38.2060
    38.4637  38.7793  39.0088  39.0876  39.2245  39.4311  39.7863  39.8562
    39.8808  40.1584

     occupation numbers 
     1.0000   1.0000   1.0000   1.0000   1.0000   1.0000   1.0000   1.0000
     1.0000   1.0000   1.0000   1.0000   1.0000   1.0000   1.0000   1.0000
     1.0000   1.0000   1.0000   1.0000   1.0000   1.0000   1.0000   1.0000
     1.0000   1.0000   1.0000   1.0000   1.0000   1.0000   1.0000   1.0000
     1.0000   1.0000   1.0000   1.0000   1.0000   1.0000   1.0000   1.0000
     1.0000   1.0000   1.0000   1.0000   1.0000   1.0000   1.0000   1.0000
     1.0000   1.0000   1.0000   1.0000   1.0000   1.0000   1.0000   1.0000
     1.0000   1.0000   1.0000   1.0000   1.0000   1.0000   1.0000   1.0000
     1.0000   1.0000   1.0022   1.0041   1.0051   1.0174   1.0303   1.0742
     0.9105   0.8795   0.8047   0.5324   0.4682   0.2979   0.1370   0.1208
     0.0000   0.0000   0.0000   0.0000   0.0000   0.0000   0.0000   0.0000
     0.0000   0.0000   0.0000   0.0000   0.0000   0.0000   0.0000   0.0000
     0.0000   0.0000   0.0000   0.0000   0.0000   0.0000   0.0000   0.0000
     0.0000   0.0000   0.0000   0.0000   0.0000   0.0000   0.0000   0.0000
     0.0000   0.0000   0.0000   0.0000   0.0000   0.0000   0.0000   0.0000
     0.0000   0.0000   0.0000   0.0000   0.0000   0.0000   0.0000   0.0000
     0.0000   0.0000   0.0000   0.0000   0.0000   0.0000   0.0000   0.0000
     0.0000   0.0000   0.0000   0.0000   0.0000   0.0000   0.0000   0.0000
     0.0000   0.0000   0.0000   0.0000   0.0000   0.0000   0.0000   0.0000
     0.0000   0.0000   0.0000   0.0000   0.0000   0.0000   0.0000   0.0000
     0.0000   0.0000   0.0000   0.0000   0.0000   0.0000   0.0000   0.0000
     0.0000   0.0000   0.0000   0.0000   0.0000   0.0000   0.0000   0.0000
     0.0000   0.0000   0.0000   0.0000   0.0000   0.0000   0.0000   0.0000
     0.0000   0.0000   0.0000   0.0000   0.0000   0.0000   0.0000   0.0000
     0.0000   0.0000   0.0000   0.0000   0.0000   0.0000   0.0000   0.0000
     0.0000   0.0000   0.0000   0.0000   0.0000   0.0000   0.0000   0.0000
     0.0000   0.0000

          k = 0.0000 0.0000-0.4252 ( 13430 PWs)   bands (ev):

   -92.7609 -92.7609 -41.1096 -41.0986 -19.3655 -19.3290 -18.1225 -18.0417
   -17.9576 -17.7927 -17.6905 -17.3976 -17.2946 -17.1095 -17.0977 -16.9593
   -16.7674 -16.5204 -15.7583 -15.6664 -15.6317 -14.9813 -14.8916 -14.7551
    -3.6623  -3.6278  -3.4935  -3.4631  -3.4615  -3.4366  -0.9233  -0.8234
    -0.2872  -0.1291   0.0489   0.1534   0.3194   0.3535   0.8004   0.9367
     1.0141   1.0300   1.0317   1.1337   1.1973   1.2318   1.3249   1.6174
     1.6870   1.7569   1.9457   1.9581   1.9651   2.0555   2.1276   2.1747
     2.1808   2.3764   2.4059   2.4428   2.4710   2.5627   2.5948   2.6327
     2.6663   2.7682   4.4937   4.4991   4.4998   4.5295   4.5433   4.6019
     4.6359   4.6421   4.6456   4.6744   4.6767   4.7006   4.7174   4.7304
    11.3411  11.6583  11.7717  12.1943  12.4600  12.5448  12.6877  12.9321
    13.6147  13.7624  13.8699  13.8776  14.2738  14.3153  14.3829  14.7467
    14.8829  15.0119  15.0872  15.5927  15.6729  15.8668  15.9402  16.3509
    17.1727  17.3547  17.5047  17.8601  18.2831  18.3689  18.4527  18.8950
    18.9025  19.0211  19.1599  19.4908  20.0743  20.0898  20.6084  20.8605
    21.2604  21.3361  21.4849  21.7028  22.0147  22.3040  22.4051  22.6405
    23.0237  23.5333  23.7017  23.9574  24.1297  24.5239  24.6590  25.5014
    25.5413  25.6983  25.7284  25.8176  26.3268  26.8305  27.0132  27.0707
    27.5592  27.7595  27.7852  27.7951  27.9516  28.2167  28.2343  28.2773
    28.6065  28.9941  29.2139  29.4103  29.4884  30.0578  30.3656  30.4640
    30.5411  30.6080  30.7918  31.3392  31.3962  31.6586  31.6634  32.0345
    32.3639  32.4204  32.7180  32.8106  33.2839  33.3442  33.5092  33.7407
    34.0886  34.5228  34.6281  34.7650  35.0439  35.1526  35.3464  35.7090
    35.7704  35.8771  36.2633  36.2999  36.3225  36.4051  36.5237  36.7535
    36.9842  37.1388  37.3652  37.4482  37.7574  37.8090  38.0683  38.1567
    38.5650  38.6402  38.7615  39.1373  39.1852  39.3137  39.4442  39.4792
    39.9033  40.2165

     occupation numbers 
     1.0000   1.0000   1.0000   1.0000   1.0000   1.0000   1.0000   1.0000
     1.0000   1.0000   1.0000   1.0000   1.0000   1.0000   1.0000   1.0000
     1.0000   1.0000   1.0000   1.0000   1.0000   1.0000   1.0000   1.0000
     1.0000   1.0000   1.0000   1.0000   1.0000   1.0000   1.0000   1.0000
     1.0000   1.0000   1.0000   1.0000   1.0000   1.0000   1.0000   1.0000
     1.0000   1.0000   1.0000   1.0000   1.0000   1.0000   1.0000   1.0000
     1.0000   1.0000   1.0000   1.0000   1.0000   1.0000   1.0000   1.0000
     1.0000   1.0000   1.0000   1.0000   1.0000   1.0000   1.0000   1.0000
     1.0000   1.0000   1.0029   1.0040   1.0042   1.0185   1.0318   1.0760
     0.9236   0.8718   0.8407   0.5346   0.5096   0.2755   0.1574   0.0944
     0.0000   0.0000   0.0000   0.0000   0.0000   0.0000   0.0000   0.0000
     0.0000   0.0000   0.0000   0.0000   0.0000   0.0000   0.0000   0.0000
     0.0000   0.0000   0.0000   0.0000   0.0000   0.0000   0.0000   0.0000
     0.0000   0.0000   0.0000   0.0000   0.0000   0.0000   0.0000   0.0000
     0.0000   0.0000   0.0000   0.0000   0.0000   0.0000   0.0000   0.0000
     0.0000   0.0000   0.0000   0.0000   0.0000   0.0000   0.0000   0.0000
     0.0000   0.0000   0.0000   0.0000   0.0000   0.0000   0.0000   0.0000
     0.0000   0.0000   0.0000   0.0000   0.0000   0.0000   0.0000   0.0000
     0.0000   0.0000   0.0000   0.0000   0.0000   0.0000   0.0000   0.0000
     0.0000   0.0000   0.0000   0.0000   0.0000   0.0000   0.0000   0.0000
     0.0000   0.0000   0.0000   0.0000   0.0000   0.0000   0.0000   0.0000
     0.0000   0.0000   0.0000   0.0000   0.0000   0.0000   0.0000   0.0000
     0.0000   0.0000   0.0000   0.0000   0.0000   0.0000   0.0000   0.0000
     0.0000   0.0000   0.0000   0.0000   0.0000   0.0000   0.0000   0.0000
     0.0000   0.0000   0.0000   0.0000   0.0000   0.0000   0.0000   0.0000
     0.0000   0.0000   0.0000   0.0000   0.0000   0.0000   0.0000   0.0000
     0.0000   0.0000

          k = 0.1237 0.0000 0.0000 ( 13473 PWs)   bands (ev):

   -92.7609 -92.7609 -41.1092 -41.0989 -19.3705 -19.3191 -18.1555 -18.1361
   -17.7684 -17.7484 -17.7105 -17.3694 -17.3275 -17.2646 -17.1006 -16.9407
   -16.7471 -16.5414 -15.6728 -15.6664 -15.6010 -15.0151 -14.9060 -14.7717
    -3.6320  -3.6161  -3.5078  -3.4736  -3.4641  -3.4454  -0.8181  -0.7531
    -0.3702  -0.1464   0.0419   0.2535   0.2987   0.3181   0.5939   0.7157
     0.8826   1.0269   1.1085   1.2011   1.2894   1.3480   1.4441   1.5063
     1.6554   1.8320   1.9196   1.9691   2.0380   2.0684   2.0970   2.2392
     2.2676   2.2987   2.4002   2.4337   2.5136   2.5521   2.5773   2.6342
     2.6652   2.7314   4.4814   4.5028   4.5034   4.5249   4.5400   4.5954
     4.6402   4.6481   4.6589   4.6807   4.6860   4.6902   4.7080   4.7273
    10.4801  11.6384  11.7883  12.4614  12.4698  12.8177  12.9131  13.3200
    13.4442  13.5957  13.9515  14.0397  14.2183  14.4387  14.6137  14.6648
    14.9407  15.1156  15.1406  15.2051  15.4185  15.7996  16.1495  16.2901
    16.5659  17.3629  17.4802  17.6473  17.9690  18.5653  18.6475  18.9514
    19.2908  19.4130  19.5545  19.7376  19.9690  20.1793  20.4546  20.9357
    21.1956  21.2020  21.5464  21.7500  22.0796  22.1945  22.4873  22.7957
    22.9120  23.6419  23.8885  23.9632  24.2021  24.4650  24.5511  24.9097
    24.9800  25.6923  25.9470  26.0711  26.3885  26.5993  26.9019  26.9772
    27.2773  27.3847  27.6236  28.0539  28.2387  28.4066  28.4732  28.5677
    28.6036  28.9393  29.1005  29.4901  29.8889  30.0176  30.1430  30.2411
    30.4845  30.6876  31.0137  31.0665  31.3123  31.6224  31.6585  31.7737
    31.8265  32.2304  32.4800  33.0364  33.1176  33.2429  33.4834  33.7664
    34.0343  34.0691  34.3574  34.4123  34.7892  34.9369  35.0924  35.2546
    35.5196  35.9232  36.0942  36.3375  36.6665  36.7955  36.8296  37.0309
    37.1429  37.4857  37.5454  37.6993  37.9901  38.0693  38.2105  38.5820
    38.6785  38.6876  38.9688  39.1584  39.2565  39.5213  39.5275  39.6548
    39.8483  40.2478

     occupation numbers 
     1.0000   1.0000   1.0000   1.0000   1.0000   1.0000   1.0000   1.0000
     1.0000   1.0000   1.0000   1.0000   1.0000   1.0000   1.0000   1.0000
     1.0000   1.0000   1.0000   1.0000   1.0000   1.0000   1.0000   1.0000
     1.0000   1.0000   1.0000   1.0000   1.0000   1.0000   1.0000   1.0000
     1.0000   1.0000   1.0000   1.0000   1.0000   1.0000   1.0000   1.0000
     1.0000   1.0000   1.0000   1.0000   1.0000   1.0000   1.0000   1.0000
     1.0000   1.0000   1.0000   1.0000   1.0000   1.0000   1.0000   1.0000
     1.0000   1.0000   1.0000   1.0000   1.0000   1.0000   1.0000   1.0000
     1.0000   1.0000   1.0013   1.0049   1.0051   1.0151   1.0283   1.0822
     0.8885   0.8167   0.7054   0.4668   0.4119   0.3699   0.2184   0.1070
     0.0000   0.0000   0.0000   0.0000   0.0000   0.0000   0.0000   0.0000
     0.0000   0.0000   0.0000   0.0000   0.0000   0.0000   0.0000   0.0000
     0.0000   0.0000   0.0000   0.0000   0.0000   0.0000   0.0000   0.0000
     0.0000   0.0000   0.0000   0.0000   0.0000   0.0000   0.0000   0.0000
     0.0000   0.0000   0.0000   0.0000   0.0000   0.0000   0.0000   0.0000
     0.0000   0.0000   0.0000   0.0000   0.0000   0.0000   0.0000   0.0000
     0.0000   0.0000   0.0000   0.0000   0.0000   0.0000   0.0000   0.0000
     0.0000   0.0000   0.0000   0.0000   0.0000   0.0000   0.0000   0.0000
     0.0000   0.0000   0.0000   0.0000   0.0000   0.0000   0.0000   0.0000
     0.0000   0.0000   0.0000   0.0000   0.0000   0.0000   0.0000   0.0000
     0.0000   0.0000   0.0000   0.0000   0.0000   0.0000   0.0000   0.0000
     0.0000   0.0000   0.0000   0.0000   0.0000   0.0000   0.0000   0.0000
     0.0000   0.0000   0.0000   0.0000   0.0000   0.0000   0.0000   0.0000
     0.0000   0.0000   0.0000   0.0000   0.0000   0.0000   0.0000   0.0000
     0.0000   0.0000   0.0000   0.0000   0.0000   0.0000   0.0000   0.0000
     0.0000   0.0000   0.0000   0.0000   0.0000   0.0000   0.0000   0.0000
     0.0000   0.0000

          k = 0.1237 0.0000-0.1417 ( 13463 PWs)   bands (ev):

   -92.7609 -92.7609 -41.1092 -41.0989 -19.3695 -19.3210 -18.1630 -18.1112
   -17.7891 -17.7700 -17.7051 -17.3670 -17.3229 -17.2443 -17.0958 -16.9438
   -16.7504 -16.5410 -15.6931 -15.6614 -15.6001 -15.0065 -14.9064 -14.7710
    -3.6382  -3.6161  -3.5056  -3.4737  -3.4550  -3.4477  -0.8390  -0.7652
    -0.3483  -0.1455   0.0400   0.2626   0.2672   0.3258   0.6194   0.7540
     0.9081   1.0317   1.1096   1.2021   1.2810   1.2976   1.4026   1.5427
     1.6540   1.8186   1.9355   1.9770   2.0461   2.0620   2.1119   2.2071
     2.2392   2.3023   2.3875   2.4604   2.5102   2.5247   2.5983   2.6329
     2.6658   2.7364   4.4827   4.5018   4.5032   4.5257   4.5407   4.5948
     4.6403   4.6482   4.6556   4.6777   4.6842   4.6935   4.7125   4.7252
    10.6072  11.6553  11.7699  12.4526  12.4870  12.7007  12.9626  13.3828
    13.4902  13.5048  13.9350  14.0398  14.2100  14.3327  14.5428  14.7263
    14.9124  15.0078  15.0669  15.3836  15.4621  15.8447  16.0211  16.4332
    16.6124  17.3645  17.4794  17.6982  18.0549  18.5584  18.5661  18.8303
    19.1440  19.3945  19.6417  19.8181  19.9724  20.1306  20.4242  20.9327
    21.0511  21.3309  21.5864  21.7948  22.0006  22.0267  22.5064  22.9451
    22.9806  23.7145  23.8149  23.8938  24.2360  24.4033  24.5894  25.0149
    25.0471  25.6250  25.9096  26.1712  26.2582  26.5629  26.8254  27.0964
    27.2703  27.3775  27.7318  27.8537  28.0938  28.2819  28.4899  28.5707
    28.8360  28.9101  29.3709  29.4351  29.6699  30.1579  30.3217  30.3783
    30.4863  30.8081  30.9509  31.1433  31.3462  31.4137  31.5227  31.6567
    32.1109  32.1207  32.5287  33.0110  33.2461  33.4066  33.5909  33.8187
    33.9516  34.1387  34.2310  34.3595  34.5799  34.8642  35.2007  35.5644
    35.7003  35.7846  35.9949  36.1929  36.5491  36.7442  36.9161  37.0363
    37.1860  37.3375  37.5532  37.8723  37.9029  38.0088  38.1697  38.5110
    38.5368  38.8823  39.0016  39.0612  39.2369  39.4831  39.6175  39.7122
    40.0464  40.3101

     occupation numbers 
     1.0000   1.0000   1.0000   1.0000   1.0000   1.0000   1.0000   1.0000
     1.0000   1.0000   1.0000   1.0000   1.0000   1.0000   1.0000   1.0000
     1.0000   1.0000   1.0000   1.0000   1.0000   1.0000   1.0000   1.0000
     1.0000   1.0000   1.0000   1.0000   1.0000   1.0000   1.0000   1.0000
     1.0000   1.0000   1.0000   1.0000   1.0000   1.0000   1.0000   1.0000
     1.0000   1.0000   1.0000   1.0000   1.0000   1.0000   1.0000   1.0000
     1.0000   1.0000   1.0000   1.0000   1.0000   1.0000   1.0000   1.0000
     1.0000   1.0000   1.0000   1.0000   1.0000   1.0000   1.0000   1.0000
     1.0000   1.0000   1.0015   1.0047   1.0051   1.0157   1.0289   1.0825
     0.8881   0.8152   0.7409   0.4984   0.4301   0.3388   0.1870   0.1166
     0.0000   0.0000   0.0000   0.0000   0.0000   0.0000   0.0000   0.0000
     0.0000   0.0000   0.0000   0.0000   0.0000   0.0000   0.0000   0.0000
     0.0000   0.0000   0.0000   0.0000   0.0000   0.0000   0.0000   0.0000
     0.0000   0.0000   0.0000   0.0000   0.0000   0.0000   0.0000   0.0000
     0.0000   0.0000   0.0000   0.0000   0.0000   0.0000   0.0000   0.0000
     0.0000   0.0000   0.0000   0.0000   0.0000   0.0000   0.0000   0.0000
     0.0000   0.0000   0.0000   0.0000   0.0000   0.0000   0.0000   0.0000
     0.0000   0.0000   0.0000   0.0000   0.0000   0.0000   0.0000   0.0000
     0.0000   0.0000   0.0000   0.0000   0.0000   0.0000   0.0000   0.0000
     0.0000   0.0000   0.0000   0.0000   0.0000   0.0000   0.0000   0.0000
     0.0000   0.0000   0.0000   0.0000   0.0000   0.0000   0.0000   0.0000
     0.0000   0.0000   0.0000   0.0000   0.0000   0.0000   0.0000   0.0000
     0.0000   0.0000   0.0000   0.0000   0.0000   0.0000   0.0000   0.0000
     0.0000   0.0000   0.0000   0.0000   0.0000   0.0000   0.0000   0.0000
     0.0000   0.0000   0.0000   0.0000   0.0000   0.0000   0.0000   0.0000
     0.0000   0.0000   0.0000   0.0000   0.0000   0.0000   0.0000   0.0000
     0.0000   0.0000

          k = 0.1237 0.0000-0.2835 ( 13457 PWs)   bands (ev):

   -92.7609 -92.7609 -41.1092 -41.0989 -19.3667 -19.3256 -18.1641 -18.0624
   -17.8569 -17.7755 -17.7225 -17.3673 -17.3010 -17.1976 -17.0921 -16.9515
   -16.7579 -16.5401 -15.7218 -15.6662 -15.5981 -14.9876 -14.9073 -14.7697
    -3.6466  -3.6215  -3.4997  -3.4642  -3.4547  -3.4434  -0.8790  -0.7919
    -0.3062  -0.1471   0.0393   0.2075   0.2837   0.3392   0.6872   0.8490
     0.9690   1.0361   1.1125   1.1689   1.2117   1.2914   1.3204   1.5942
     1.6463   1.8013   1.9417   1.9880   2.0288   2.0592   2.1272   2.1411
     2.1867   2.3391   2.4128   2.4678   2.4884   2.5224   2.5762   2.6515
     2.6621   2.7515   4.4863   4.4995   4.5026   4.5277   4.5421   4.5935
     4.6397   4.6472   4.6510   4.6746   4.6810   4.6978   4.7202   4.7212
    10.9589  11.6752  11.7490  12.4105  12.5257  12.6017  12.9647  13.0602
    13.5502  13.6255  13.8980  13.9386  14.2440  14.2555  14.5749  14.6491
    14.8612  14.9805  15.0396  15.4540  15.5115  15.9001  16.1116  16.2711
    16.8876  17.2823  17.5603  17.8412  18.1891  18.3398  18.6162  18.8010
    18.9996  19.1852  19.5414  19.7604  20.0144  20.1114  20.5761  20.7064
    21.1234  21.4621  21.5813  21.6811  21.9722  22.1120  22.4702  22.9831
    23.1682  23.3972  23.5417  23.8517  24.3672  24.5278  24.8037  25.1606
    25.3336  25.6916  25.7024  25.8769  26.1218  26.6286  26.9014  27.2557
    27.4122  27.4783  27.6929  27.8471  28.1359  28.2331  28.3879  28.5267
    28.7312  28.8921  29.3141  29.5730  29.6856  29.8697  30.2782  30.4670
    30.6337  30.7865  30.9654  31.0102  31.3366  31.5747  31.7426  32.0222
    32.1186  32.4489  32.5921  33.0646  33.1959  33.2810  33.5097  33.5522
    33.8144  34.3187  34.3958  34.5655  34.7873  34.9045  35.1744  35.4916
    35.7092  35.8664  36.2129  36.3180  36.5226  36.7002  36.7797  36.9712
    37.0273  37.2260  37.5379  37.7771  37.9395  38.0090  38.1282  38.1589
    38.4634  38.8267  38.8899  39.0525  39.2994  39.5051  39.6676  39.8956
    39.9923  40.1911

     occupation numbers 
     1.0000   1.0000   1.0000   1.0000   1.0000   1.0000   1.0000   1.0000
     1.0000   1.0000   1.0000   1.0000   1.0000   1.0000   1.0000   1.0000
     1.0000   1.0000   1.0000   1.0000   1.0000   1.0000   1.0000   1.0000
     1.0000   1.0000   1.0000   1.0000   1.0000   1.0000   1.0000   1.0000
     1.0000   1.0000   1.0000   1.0000   1.0000   1.0000   1.0000   1.0000
     1.0000   1.0000   1.0000   1.0000   1.0000   1.0000   1.0000   1.0000
     1.0000   1.0000   1.0000   1.0000   1.0000   1.0000   1.0000   1.0000
     1.0000   1.0000   1.0000   1.0000   1.0000   1.0000   1.0000   1.0000
     1.0000   1.0000   1.0018   1.0041   1.0049   1.0171   1.0304   1.0829
     0.8932   0.8255   0.7876   0.5326   0.4636   0.2998   0.1417   0.1363
     0.0000   0.0000   0.0000   0.0000   0.0000   0.0000   0.0000   0.0000
     0.0000   0.0000   0.0000   0.0000   0.0000   0.0000   0.0000   0.0000
     0.0000   0.0000   0.0000   0.0000   0.0000   0.0000   0.0000   0.0000
     0.0000   0.0000   0.0000   0.0000   0.0000   0.0000   0.0000   0.0000
     0.0000   0.0000   0.0000   0.0000   0.0000   0.0000   0.0000   0.0000
     0.0000   0.0000   0.0000   0.0000   0.0000   0.0000   0.0000   0.0000
     0.0000   0.0000   0.0000   0.0000   0.0000   0.0000   0.0000   0.0000
     0.0000   0.0000   0.0000   0.0000   0.0000   0.0000   0.0000   0.0000
     0.0000   0.0000   0.0000   0.0000   0.0000   0.0000   0.0000   0.0000
     0.0000   0.0000   0.0000   0.0000   0.0000   0.0000   0.0000   0.0000
     0.0000   0.0000   0.0000   0.0000   0.0000   0.0000   0.0000   0.0000
     0.0000   0.0000   0.0000   0.0000   0.0000   0.0000   0.0000   0.0000
     0.0000   0.0000   0.0000   0.0000   0.0000   0.0000   0.0000   0.0000
     0.0000   0.0000   0.0000   0.0000   0.0000   0.0000   0.0000   0.0000
     0.0000   0.0000   0.0000   0.0000   0.0000   0.0000   0.0000   0.0000
     0.0000   0.0000   0.0000   0.0000   0.0000   0.0000   0.0000   0.0000
     0.0000   0.0000

          k = 0.1237 0.0000-0.4252 ( 13438 PWs)   bands (ev):

   -92.7609 -92.7609 -41.1092 -41.0989 -19.3640 -19.3298 -18.1607 -18.0009
   -17.9278 -17.7795 -17.7453 -17.3698 -17.2781 -17.1471 -17.1062 -16.9586
   -16.7638 -16.5394 -15.7412 -15.6730 -15.5967 -14.9728 -14.9082 -14.7689
    -3.6507  -3.6282  -3.4924  -3.4625  -3.4526  -3.4390  -0.9064  -0.8124
    -0.2777  -0.1519   0.0423   0.1643   0.3016   0.3490   0.7804   0.9141
     1.0142   1.0304   1.0736   1.1365   1.2127   1.2501   1.3118   1.6206
     1.6441   1.7541   1.8920   1.9711   2.0142   2.0619   2.1258   2.1692
     2.1767   2.3747   2.4048   2.4452   2.4611   2.5551   2.5821   2.6323
     2.6640   2.7660   4.4905   4.4964   4.5021   4.5292   4.5432   4.5924
     4.6383   4.6438   4.6511   4.6743   4.6779   4.7004   4.7169   4.7263
    11.3982  11.6710  11.8062  12.2356  12.4692  12.5738  12.7178  12.9420
    13.6379  13.7554  13.8567  13.8814  14.2414  14.2611  14.4198  14.7270
    14.8456  14.9763  15.0865  15.4346  15.5759  15.8764  16.1137  16.3245
    17.0040  17.1912  17.6227  17.9071  18.1617  18.3471  18.8099  18.8771
    18.9614  19.0855  19.2913  19.4231  19.9966  20.1745  20.5466  20.8139
    21.3088  21.4352  21.4881  21.6890  22.0245  22.1758  22.2819  22.8860
    23.1003  23.4500  23.6550  23.7663  24.1567  24.5703  24.7408  25.3625
    25.5147  25.6281  25.7437  25.9264  26.4276  26.6110  26.9863  27.1411
    27.4666  27.6214  27.7987  27.8990  28.1083  28.1242  28.3660  28.4365
    28.5781  28.7890  29.1638  29.5877  29.7749  30.0167  30.2462  30.4569
    30.4930  30.5699  30.7298  31.1964  31.5706  31.6483  31.8870  31.9163
    32.3235  32.4008  32.6200  32.7833  33.1910  33.3737  33.5604  33.6426
    34.1690  34.3166  34.6196  34.7339  35.0051  35.1799  35.3878  35.5203
    35.7723  35.9580  36.0899  36.1622  36.4002  36.6009  36.6939  36.8977
    37.0433  37.1755  37.3658  37.4970  37.6748  37.8832  38.2479  38.3884
    38.5848  38.7279  38.8242  38.9105  39.1984  39.3396  39.4796  39.6493
    39.8348  40.0659

     occupation numbers 
     1.0000   1.0000   1.0000   1.0000   1.0000   1.0000   1.0000   1.0000
     1.0000   1.0000   1.0000   1.0000   1.0000   1.0000   1.0000   1.0000
     1.0000   1.0000   1.0000   1.0000   1.0000   1.0000   1.0000   1.0000
     1.0000   1.0000   1.0000   1.0000   1.0000   1.0000   1.0000   1.0000
     1.0000   1.0000   1.0000   1.0000   1.0000   1.0000   1.0000   1.0000
     1.0000   1.0000   1.0000   1.0000   1.0000   1.0000   1.0000   1.0000
     1.0000   1.0000   1.0000   1.0000   1.0000   1.0000   1.0000   1.0000
     1.0000   1.0000   1.0000   1.0000   1.0000   1.0000   1.0000   1.0000
     1.0000   1.0000   1.0024   1.0034   1.0047   1.0183   1.0317   1.0832
     0.9047   0.8566   0.7866   0.5358   0.4972   0.2773   0.1598   0.1113
     0.0000   0.0000   0.0000   0.0000   0.0000   0.0000   0.0000   0.0000
     0.0000   0.0000   0.0000   0.0000   0.0000   0.0000   0.0000   0.0000
     0.0000   0.0000   0.0000   0.0000   0.0000   0.0000   0.0000   0.0000
     0.0000   0.0000   0.0000   0.0000   0.0000   0.0000   0.0000   0.0000
     0.0000   0.0000   0.0000   0.0000   0.0000   0.0000   0.0000   0.0000
     0.0000   0.0000   0.0000   0.0000   0.0000   0.0000   0.0000   0.0000
     0.0000   0.0000   0.0000   0.0000   0.0000   0.0000   0.0000   0.0000
     0.0000   0.0000   0.0000   0.0000   0.0000   0.0000   0.0000   0.0000
[...]
     0.0000   0.0000   0.0000   0.0000   0.0000   0.0000   0.0000   0.0000
     0.0000   0.0000   0.0000   0.0000   0.0000   0.0000   0.0000   0.0000
     0.0000   0.0000   0.0000   0.0000   0.0000   0.0000   0.0000   0.0000
     0.0000   0.0000   0.0000   0.0000   0.0000   0.0000   0.0000   0.0000
     0.0000   0.0000   0.0000   0.0000   0.0000   0.0000   0.0000   0.0000
     0.0000   0.0000   0.0000   0.0000   0.0000   0.0000   0.0000   0.0000
     0.0000   0.0000   0.0000   0.0000   0.0000   0.0000   0.0000   0.0000
     0.0000   0.0000   0.0000   0.0000   0.0000   0.0000   0.0000   0.0000
     0.0000   0.0000   0.0000   0.0000   0.0000   0.0000   0.0000   0.0000
     0.0000   0.0000

          k = 0.4949-0.5000 0.2176 ( 13438 PWs)   bands (ev):

   -92.7609 -92.7609 -41.1050 -41.1031 -19.3454 -19.3355 -18.1703 -18.1140
   -17.8397 -17.7704 -17.6253 -17.5616 -17.2833 -17.2370 -16.8854 -16.8793
   -16.7732 -16.7335 -15.6931 -15.6646 -15.2917 -15.1695 -14.9003 -14.8702
    -3.6150  -3.6034  -3.4926  -3.4797  -3.4056  -3.3911  -0.7464  -0.7164
    -0.2247  -0.1485  -0.0734  -0.0029   0.1156   0.1208   0.8886   0.9995
     1.0470   1.0772   1.2101   1.2192   1.2894   1.3043   1.5674   1.5680
     1.5940   1.6257   1.8667   1.8915   1.9614   2.0131   2.0902   2.1154
     2.1872   2.2217   2.3606   2.3816   2.5052   2.5121   2.5857   2.6030
     2.6649   2.6874   4.4708   4.4725   4.5284   4.5369   4.5392   4.5484
     4.6617   4.6659   4.6731   4.6783   4.6820   4.6829   4.7030   4.7118
    11.7329  11.7487  12.6753  12.6771  12.8035  12.8418  12.9123  13.0932
    13.1629  13.2992  13.7616  13.8337  13.9278  13.9301  14.3693  14.4399
    14.6468  14.8643  15.1896  15.2641  15.4529  15.5341  15.5583  15.6646
    16.3294  16.3705  18.1325  18.1348  18.5031  18.5409  19.3069  19.3570
    19.5100  19.6193  19.8486  19.8607  20.1853  20.3209  20.5986  20.6292
    21.2988  21.4199  21.6030  21.7113  22.4418  22.4617  22.7070  22.8442
    23.4776  23.7119  23.8526  23.8920  24.2325  24.4743  24.6215  24.7901
    25.6125  25.8250  25.9501  26.1420  26.1668  26.1837  26.3850  26.5298
    26.7851  26.8573  27.4255  27.4868  27.9317  27.9678  28.4477  28.4789
    28.8042  28.9360  29.2337  29.2749  29.3259  29.6857  30.2489  30.4218
    30.5406  30.5921  31.1611  31.2757  31.5570  31.6394  31.7768  31.8496
    32.3781  32.4779  32.5067  32.6014  33.0210  33.2469  33.4269  33.7051
    33.9783  34.2177  34.4242  34.5491  34.8130  34.9716  35.0703  35.1457
    35.2324  35.2957  35.8048  36.1163  36.2578  36.3142  36.4632  36.5669
    36.9964  37.0065  37.3100  37.4789  38.0584  38.1520  38.3144  38.4893
    38.7942  38.8047  39.1407  39.1674  39.5385  39.7542  39.8890  39.9300
    40.1865  40.3445

     occupation numbers 
     1.0000   1.0000   1.0000   1.0000   1.0000   1.0000   1.0000   1.0000
     1.0000   1.0000   1.0000   1.0000   1.0000   1.0000   1.0000   1.0000
     1.0000   1.0000   1.0000   1.0000   1.0000   1.0000   1.0000   1.0000
     1.0000   1.0000   1.0000   1.0000   1.0000   1.0000   1.0000   1.0000
     1.0000   1.0000   1.0000   1.0000   1.0000   1.0000   1.0000   1.0000
     1.0000   1.0000   1.0000   1.0000   1.0000   1.0000   1.0000   1.0000
     1.0000   1.0000   1.0000   1.0000   1.0000   1.0000   1.0000   1.0000
     1.0000   1.0000   1.0000   1.0000   1.0000   1.0000   1.0000   1.0000
     1.0000   1.0000   1.0006   1.0007   1.0177   1.0251   1.0274   1.0380
     0.6755   0.6285   0.5494   0.4923   0.4528   0.4432   0.2565   0.1919
     0.0000   0.0000   0.0000   0.0000   0.0000   0.0000   0.0000   0.0000
     0.0000   0.0000   0.0000   0.0000   0.0000   0.0000   0.0000   0.0000
     0.0000   0.0000   0.0000   0.0000   0.0000   0.0000   0.0000   0.0000
     0.0000   0.0000   0.0000   0.0000   0.0000   0.0000   0.0000   0.0000
     0.0000   0.0000   0.0000   0.0000   0.0000   0.0000   0.0000   0.0000
     0.0000   0.0000   0.0000   0.0000   0.0000   0.0000   0.0000   0.0000
     0.0000   0.0000   0.0000   0.0000   0.0000   0.0000   0.0000   0.0000
     0.0000   0.0000   0.0000   0.0000   0.0000   0.0000   0.0000   0.0000
     0.0000   0.0000   0.0000   0.0000   0.0000   0.0000   0.0000   0.0000
     0.0000   0.0000   0.0000   0.0000   0.0000   0.0000   0.0000   0.0000
     0.0000   0.0000   0.0000   0.0000   0.0000   0.0000   0.0000   0.0000
     0.0000   0.0000   0.0000   0.0000   0.0000   0.0000   0.0000   0.0000
     0.0000   0.0000   0.0000   0.0000   0.0000   0.0000   0.0000   0.0000
     0.0000   0.0000   0.0000   0.0000   0.0000   0.0000   0.0000   0.0000
     0.0000   0.0000   0.0000   0.0000   0.0000   0.0000   0.0000   0.0000
     0.0000   0.0000   0.0000   0.0000   0.0000   0.0000   0.0000   0.0000
     0.0000   0.0000

          k = 0.4949-0.5000 0.0759 ( 13418 PWs)   bands (ev):

   -92.7609 -92.7609 -41.1050 -41.1031 -19.3451 -19.3357 -18.1703 -18.1139
   -17.8408 -17.7564 -17.6272 -17.5891 -17.2681 -17.2308 -16.8849 -16.8791
   -16.7791 -16.7327 -15.6927 -15.6658 -15.2927 -15.1678 -14.9001 -14.8709
    -3.6121  -3.6001  -3.4914  -3.4811  -3.4078  -3.3926  -0.7527  -0.7218
    -0.2219  -0.1573  -0.0798  -0.0015   0.1326   0.1451   0.9017   0.9787
     0.9922   1.0597   1.2087   1.2322   1.3380   1.3688   1.4722   1.5166
     1.6338   1.6764   1.8392   1.8895   1.9778   1.9836   2.0999   2.1292
     2.2089   2.2313   2.3493   2.3655   2.5202   2.5235   2.5723   2.5996
     2.6601   2.6825   4.4705   4.4724   4.5285   4.5359   4.5399   4.5485
     4.6597   4.6647   4.6723   4.6794   4.6835   4.6847   4.7033   4.7114
    11.7271  11.7510  12.6672  12.6734  12.7804  12.8846  12.9524  13.1155
    13.1767  13.3124  13.7630  13.8432  13.8975  13.9382  14.3852  14.4515
    14.6222  14.8749  15.1197  15.1654  15.4870  15.5885  15.6396  15.7083
    16.2869  16.3214  17.9878  18.0702  18.5393  18.6092  19.0875  19.1830
    19.3398  19.5667  20.0106  20.0991  20.3327  20.4878  20.5255  20.6583
    21.3886  21.4768  21.6213  21.8042  22.4013  22.4381  22.7767  22.9308
    23.3464  23.5397  23.6633  23.9414  24.2824  24.5078  24.7415  24.9471
    25.4742  25.6976  25.8797  25.9393  26.1475  26.3411  26.5149  26.5698
    26.8201  27.0284  27.3280  27.4144  27.9518  28.1309  28.2994  28.3610
    28.4932  28.6897  29.2615  29.5236  29.7112  29.8257  30.2121  30.2759
    30.4426  30.5261  31.0190  31.2057  31.3870  31.6031  31.8135  32.0460
    32.1718  32.2558  32.5385  32.7415  33.0188  33.3326  33.5600  33.6285
    33.8729  34.0351  34.2873  34.4314  34.7688  34.9142  35.3178  35.4758
    35.5746  35.6564  36.0027  36.0541  36.2658  36.3369  36.8731  36.9591
    36.9843  37.0832  37.3018  37.4915  37.6984  37.9501  38.4096  38.5075
    38.9341  39.1072  39.2110  39.3480  39.4627  39.6423  39.7322  39.8989
    40.0661  40.1677

     occupation numbers 
     1.0000   1.0000   1.0000   1.0000   1.0000   1.0000   1.0000   1.0000
     1.0000   1.0000   1.0000   1.0000   1.0000   1.0000   1.0000   1.0000
     1.0000   1.0000   1.0000   1.0000   1.0000   1.0000   1.0000   1.0000
     1.0000   1.0000   1.0000   1.0000   1.0000   1.0000   1.0000   1.0000
     1.0000   1.0000   1.0000   1.0000   1.0000   1.0000   1.0000   1.0000
     1.0000   1.0000   1.0000   1.0000   1.0000   1.0000   1.0000   1.0000
     1.0000   1.0000   1.0000   1.0000   1.0000   1.0000   1.0000   1.0000
     1.0000   1.0000   1.0000   1.0000   1.0000   1.0000   1.0000   1.0000
     1.0000   1.0000   1.0006   1.0007   1.0177   1.0241   1.0281   1.0381
     0.6974   0.6418   0.5583   0.4804   0.4377   0.4252   0.2539   0.1945
     0.0000   0.0000   0.0000   0.0000   0.0000   0.0000   0.0000   0.0000
     0.0000   0.0000   0.0000   0.0000   0.0000   0.0000   0.0000   0.0000
     0.0000   0.0000   0.0000   0.0000   0.0000   0.0000   0.0000   0.0000
     0.0000   0.0000   0.0000   0.0000   0.0000   0.0000   0.0000   0.0000
     0.0000   0.0000   0.0000   0.0000   0.0000   0.0000   0.0000   0.0000
     0.0000   0.0000   0.0000   0.0000   0.0000   0.0000   0.0000   0.0000
     0.0000   0.0000   0.0000   0.0000   0.0000   0.0000   0.0000   0.0000
     0.0000   0.0000   0.0000   0.0000   0.0000   0.0000   0.0000   0.0000
     0.0000   0.0000   0.0000   0.0000   0.0000   0.0000   0.0000   0.0000
     0.0000   0.0000   0.0000   0.0000   0.0000   0.0000   0.0000   0.0000
     0.0000   0.0000   0.0000   0.0000   0.0000   0.0000   0.0000   0.0000
     0.0000   0.0000   0.0000   0.0000   0.0000   0.0000   0.0000   0.0000
     0.0000   0.0000   0.0000   0.0000   0.0000   0.0000   0.0000   0.0000
     0.0000   0.0000   0.0000   0.0000   0.0000   0.0000   0.0000   0.0000
     0.0000   0.0000   0.0000   0.0000   0.0000   0.0000   0.0000   0.0000
     0.0000   0.0000   0.0000   0.0000   0.0000   0.0000   0.0000   0.0000
     0.0000   0.0000

          k = 0.4949-0.5000-0.0658 ( 13444 PWs)   bands (ev):

   -92.7609 -92.7609 -41.1050 -41.1031 -19.3445 -19.3362 -18.1703 -18.1124
   -17.8387 -17.7383 -17.6441 -17.6182 -17.2527 -17.2132 -16.8837 -16.8782
   -16.7855 -16.7357 -15.6928 -15.6684 -15.2926 -15.1656 -14.8999 -14.8722
    -3.6046  -3.5924  -3.4892  -3.4848  -3.4123  -3.3962  -0.7667  -0.7341
    -0.2130  -0.1735  -0.0935  -0.0018   0.1757   0.1973   0.8788   0.9335
     0.9808   1.0254   1.2377   1.2623   1.3358   1.4180   1.4325   1.4693
     1.6447   1.6907   1.8118   1.8609   1.9836   2.0240   2.1295   2.1516
     2.2307   2.2372   2.3276   2.3466   2.5236   2.5303   2.5661   2.5914
     2.6528   2.6700   4.4699   4.4721   4.5284   4.5352   4.5401   4.5489
     4.6553   4.6621   4.6726   4.6802   4.6863   4.6883   4.7031   4.7112
    11.7228  11.7541  12.6414  12.6715  12.7952  12.8963  13.0166  13.1558
    13.1650  13.3811  13.7494  13.8692  13.9628  14.0036  14.3953  14.4584
    14.5519  14.8261  15.0651  15.1257  15.4643  15.5771  15.7386  15.7781
    16.1180  16.3043  17.8211  17.9462  18.5572  18.6430  18.8538  18.9566
    19.3591  19.4921  20.1374  20.2105  20.3657  20.4754  20.6352  20.8289
    21.5678  21.6905  21.8103  21.9148  22.3479  22.3635  22.9861  23.0464
    23.1449  23.1945  23.6804  23.9454  24.4131  24.5824  24.8196  25.0612
    25.2750  25.5014  25.6978  26.0043  26.0134  26.3018  26.4931  26.7580
    27.0527  27.1130  27.2401  27.4936  27.6584  28.0148  28.1032  28.1952
    28.5147  28.8700  29.1663  29.4247  29.5540  29.6720  29.9602  30.1415
    30.4869  30.7922  30.8980  31.1023  31.3862  31.6625  31.9274  32.0139
    32.1838  32.4104  32.5821  32.9583  33.0539  33.3249  33.4932  33.6352
    33.7178  33.9661  34.0907  34.3286  34.7548  35.0586  35.5794  35.6013
    35.7018  36.0599  36.0801  36.2602  36.4999  36.6732  37.0166  37.1675
    37.3470  37.4523  37.5318  37.6856  37.9056  38.0565  38.4616  38.6496
    38.7580  38.8774  38.9842  39.1466  39.3577  39.4623  39.6128  39.7135
    39.8412  40.0815

     occupation numbers 
     1.0000   1.0000   1.0000   1.0000   1.0000   1.0000   1.0000   1.0000
     1.0000   1.0000   1.0000   1.0000   1.0000   1.0000   1.0000   1.0000
     1.0000   1.0000   1.0000   1.0000   1.0000   1.0000   1.0000   1.0000
     1.0000   1.0000   1.0000   1.0000   1.0000   1.0000   1.0000   1.0000
     1.0000   1.0000   1.0000   1.0000   1.0000   1.0000   1.0000   1.0000
     1.0000   1.0000   1.0000   1.0000   1.0000   1.0000   1.0000   1.0000
     1.0000   1.0000   1.0000   1.0000   1.0000   1.0000   1.0000   1.0000
     1.0000   1.0000   1.0000   1.0000   1.0000   1.0000   1.0000   1.0000
     1.0000   1.0000   1.0006   1.0007   1.0177   1.0235   1.0283   1.0385
     0.7435   0.6711   0.5545   0.4724   0.4082   0.3881   0.2550   0.1956
     0.0000   0.0000   0.0000   0.0000   0.0000   0.0000   0.0000   0.0000
     0.0000   0.0000   0.0000   0.0000   0.0000   0.0000   0.0000   0.0000
     0.0000   0.0000   0.0000   0.0000   0.0000   0.0000   0.0000   0.0000
     0.0000   0.0000   0.0000   0.0000   0.0000   0.0000   0.0000   0.0000
     0.0000   0.0000   0.0000   0.0000   0.0000   0.0000   0.0000   0.0000
     0.0000   0.0000   0.0000   0.0000   0.0000   0.0000   0.0000   0.0000
     0.0000   0.0000   0.0000   0.0000   0.0000   0.0000   0.0000   0.0000
     0.0000   0.0000   0.0000   0.0000   0.0000   0.0000   0.0000   0.0000
     0.0000   0.0000   0.0000   0.0000   0.0000   0.0000   0.0000   0.0000
     0.0000   0.0000   0.0000   0.0000   0.0000   0.0000   0.0000   0.0000
     0.0000   0.0000   0.0000   0.0000   0.0000   0.0000   0.0000   0.0000
     0.0000   0.0000   0.0000   0.0000   0.0000   0.0000   0.0000   0.0000
     0.0000   0.0000   0.0000   0.0000   0.0000   0.0000   0.0000   0.0000
     0.0000   0.0000   0.0000   0.0000   0.0000   0.0000   0.0000   0.0000
     0.0000   0.0000   0.0000   0.0000   0.0000   0.0000   0.0000   0.0000
     0.0000   0.0000   0.0000   0.0000   0.0000   0.0000   0.0000   0.0000
     0.0000   0.0000

          k = 0.4949-0.5000-0.2076 ( 13447 PWs)   bands (ev):

   -92.7609 -92.7609 -41.1050 -41.1031 -19.3439 -19.3367 -18.1702 -18.1097
   -17.8336 -17.7412 -17.6746 -17.6035 -17.2517 -17.1994 -16.8830 -16.8768
   -16.7832 -16.7431 -15.6941 -15.6702 -15.2905 -15.1655 -14.8999 -14.8729
    -3.5971  -3.5863  -3.4899  -3.4869  -3.4156  -3.3993  -0.7778  -0.7439
    -0.2016  -0.1867  -0.1032  -0.0045   0.2157   0.2372   0.8369   0.8785
     1.0203   1.0611   1.2367   1.2576   1.2875   1.3855   1.4356   1.4458
     1.6977   1.7267   1.7919   1.8196   1.9999   2.0407   2.1687   2.1873
     2.2298   2.2499   2.3093   2.3199   2.5175   2.5196   2.5719   2.5777
     2.6507   2.6644   4.4695   4.4719   4.5281   4.5354   4.5396   4.5493
     4.6521   4.6598   4.6739   4.6803   4.6883   4.6912   4.7020   4.7118
    11.7254  11.7582  12.6209  12.6697  12.8253  12.8940  12.9810  13.1088
    13.2218  13.4657  13.8580  13.9184  14.0684  14.0752  14.3150  14.3760
    14.5406  14.7718  15.1404  15.1837  15.3187  15.4247  15.7595  15.8173
    16.0879  16.2599  17.7388  17.8388  18.4968  18.5581  18.8879  18.9588
    19.5349  19.5775  19.9190  19.9709  20.3987  20.5638  20.7367  20.8495
    21.5491  21.8713  22.0289  22.1360  22.3166  22.4240  22.8528  22.9303
    23.2166  23.3378  23.7742  23.9489  24.4813  24.5527  24.9268  25.0281
    25.1355  25.4835  25.5426  25.8688  26.1276  26.2695  26.4499  26.8413
    27.0603  27.1518  27.3309  27.4019  27.5104  27.6471  28.0066  28.3128
    28.4563  28.8075  28.9939  29.2697  29.3746  29.4327  29.9494  30.2016
    30.5166  30.8645  31.0182  31.0945  31.6474  31.8475  31.9764  32.1373
    32.2440  32.4920  32.5269  32.8036  33.0182  33.0816  33.4292  33.5357
    34.0139  34.2072  34.2928  34.5646  34.7522  35.1647  35.5056  35.6698
    35.7346  35.9474  36.2238  36.3410  36.4397  36.8986  37.1131  37.2770
    37.4244  37.6132  37.6735  37.9544  38.0328  38.1113  38.3281  38.5174
    38.6098  38.6891  38.8881  38.9623  39.0866  39.3327  39.5120  39.7850
    40.1100  40.3269

     occupation numbers 
     1.0000   1.0000   1.0000   1.0000   1.0000   1.0000   1.0000   1.0000
     1.0000   1.0000   1.0000   1.0000   1.0000   1.0000   1.0000   1.0000
     1.0000   1.0000   1.0000   1.0000   1.0000   1.0000   1.0000   1.0000
     1.0000   1.0000   1.0000   1.0000   1.0000   1.0000   1.0000   1.0000
     1.0000   1.0000   1.0000   1.0000   1.0000   1.0000   1.0000   1.0000
     1.0000   1.0000   1.0000   1.0000   1.0000   1.0000   1.0000   1.0000
     1.0000   1.0000   1.0000   1.0000   1.0000   1.0000   1.0000   1.0000
     1.0000   1.0000   1.0000   1.0000   1.0000   1.0000   1.0000   1.0000
     1.0000   1.0000   1.0006   1.0007   1.0174   1.0236   1.0278   1.0390
     0.7769   0.6955   0.5400   0.4709   0.3889   0.3601   0.2645   0.1917
     0.0000   0.0000   0.0000   0.0000   0.0000   0.0000   0.0000   0.0000
     0.0000   0.0000   0.0000   0.0000   0.0000   0.0000   0.0000   0.0000
     0.0000   0.0000   0.0000   0.0000   0.0000   0.0000   0.0000   0.0000
     0.0000   0.0000   0.0000   0.0000   0.0000   0.0000   0.0000   0.0000
     0.0000   0.0000   0.0000   0.0000   0.0000   0.0000   0.0000   0.0000
     0.0000   0.0000   0.0000   0.0000   0.0000   0.0000   0.0000   0.0000
     0.0000   0.0000   0.0000   0.0000   0.0000   0.0000   0.0000   0.0000
     0.0000   0.0000   0.0000   0.0000   0.0000   0.0000   0.0000   0.0000
     0.0000   0.0000   0.0000   0.0000   0.0000   0.0000   0.0000   0.0000
     0.0000   0.0000   0.0000   0.0000   0.0000   0.0000   0.0000   0.0000
     0.0000   0.0000   0.0000   0.0000   0.0000   0.0000   0.0000   0.0000
     0.0000   0.0000   0.0000   0.0000   0.0000   0.0000   0.0000   0.0000
     0.0000   0.0000   0.0000   0.0000   0.0000   0.0000   0.0000   0.0000
     0.0000   0.0000   0.0000   0.0000   0.0000   0.0000   0.0000   0.0000
     0.0000   0.0000   0.0000   0.0000   0.0000   0.0000   0.0000   0.0000
     0.0000   0.0000   0.0000   0.0000   0.0000   0.0000   0.0000   0.0000
     0.0000   0.0000

     the Fermi energy is     4.6871 ev
     (compare with:     4.6872 eV, computed in scf)

     Writing all to output data dir ./pwscf.save/ :
     XML data file, pseudopotentials, collected wavefunctions

     init_run     :      6.38s CPU      6.44s WALL (       1 calls)
     electrons    :  19937.42s CPU  10200.27s WALL (       1 calls)

     Called by init_run:
     wfcinit      :      0.00s CPU      0.01s WALL (       1 calls)
     wfcinit:atom :      0.93s CPU      0.99s WALL (     145 calls)
     wfcinit:wfcr :    660.05s CPU    338.24s WALL (     145 calls)
     potinit      :      2.85s CPU      2.42s WALL (       1 calls)
     hinit0       :      0.72s CPU      0.72s WALL (       1 calls)

     Called by electrons:
     c_bands      :  19937.34s CPU  10200.17s WALL (       1 calls)
     v_of_rho     :      0.57s CPU      0.34s WALL (       1 calls)
     v_h          :      0.07s CPU      0.04s WALL (       1 calls)
     v_xc         :      0.50s CPU      0.30s WALL (       1 calls)
     newd         :      2.68s CPU      3.14s WALL (       1 calls)
     PAW_pot      :      1.78s CPU      1.54s WALL (       1 calls)

     Called by c_bands:
     init_us_2    :      2.08s CPU      2.14s WALL (     145 calls)
     cegterg      :  19251.88s CPU   9818.57s WALL (     295 calls)

     Called by sum_band:

     Called by *egterg:
     cdiaghg      :   1577.64s CPU    805.63s WALL (    5573 calls)
     cegterg:over :   1552.82s CPU    789.13s WALL (    5428 calls)
     cegterg:upda :   1136.44s CPU    573.94s WALL (    5428 calls)
     cegterg:last :   1825.40s CPU    925.36s WALL (    2867 calls)
     cdiaghg:chol :    160.18s CPU     80.55s WALL (    5573 calls)
     cdiaghg:inve :     41.09s CPU     18.89s WALL (    5573 calls)
     cdiaghg:para :    491.21s CPU    256.92s WALL (   11146 calls)
     h_psi        :  12849.97s CPU   6572.71s WALL (    5868 calls)
     s_psi        :    363.07s CPU    184.88s WALL (    5868 calls)
     g_psi        :     39.16s CPU     22.05s WALL (    5428 calls)

     Called by h_psi:
     h_psi:calbec :    581.33s CPU    297.13s WALL (    5868 calls)
     vloc_psi     :  11886.85s CPU   6084.40s WALL (    5868 calls)
                                        0.00s GPU  (    5868 calls)
     add_vuspsi   :    283.19s CPU    141.22s WALL (    5868 calls)

     General routines
     calbec       :    580.97s CPU    297.06s WALL (    5868 calls)
     fft          :      0.80s CPU      0.63s WALL (      13 calls)
     ffts         :      0.40s CPU      0.35s WALL (       1 calls)
     fftw         :  11255.13s CPU   5749.12s WALL ( 1323276 calls)
     interpolate  :      0.41s CPU      0.35s WALL (       1 calls)
     davcio       :     14.84s CPU    246.18s WALL (     290 calls)

     Parallel routines

     PAW routines
     PAW_pot      :      1.78s CPU      1.54s WALL (       1 calls)

     PWSCF        :      5h32m CPU      2h56m WALL


   This run was terminated on:  21:17:13  16Apr2026            

=------------------------------------------------------------------------------=
   JOB DONE.
=------------------------------------------------------------------------------=
