
     Program PWSCF v.7.5 starts on 16Apr2026 at 17: 3:48 

     This program is part of the open-source Quantum ESPRESSO suite
     for quantum simulation of materials; please cite
         "P. Giannozzi et al., J. Phys.:Condens. Matter 21 395502 (2009);
         "P. Giannozzi et al., J. Phys.:Condens. Matter 29 465901 (2017);
         "P. Giannozzi et al., J. Chem. Phys. 152 154105 (2020);
          URL http://www.quantum-espresso.org", 
     in publications or presentations arising from this work. More details at
     http://www.quantum-espresso.org/quote

     Parallel version (MPI & OpenMP), running on      16 processor cores
     Number of MPI processes:                 8
     Threads/MPI process:                     2

     MPI processes distributed on     1 nodes
     6614 MiB available memory on the printing compute node when the environment starts

     Reading input from scf.in
Warning: card &CELL ignored

     Current dimensions of program PWSCF are:
     Max number of different atomic species (ntypx) = 10
     Max number of k-points (npk) =  40000
     Max angular momentum in pseudopotentials (lmaxx) =  4
     file Ho.paw.z_21.atompaw.wentzcovitch.v1.2.upf: wavefunction(s)  6S 0P 5D 0D 4F 0F renormalized
     Message from routine setup:
     using ibrav=0 with symmetry is DISCOURAGED, use correct ibrav instead

     R & G space division:  proc/nbgrp/npool/nimage =       8
     Subspace diagonalization in iterative solution of the eigenvalue problem:
     one sub-group per band group will be used
     ELPA distributed-memory algorithm (size of sub-group:  2*  2 procs)


     Parallelization info
     --------------------
     sticks:   dense  smooth     PW     G-vecs:    dense   smooth      PW
     Min         653     327     89                37989    13439    1934
     Max         654     329     90                37993    13441    1937
     Sum        5231    2619    715               303939   107517   15481

     Using Slab Decomposition



     bravais-lattice index     =            0
     lattice parameter (alat)  =      12.3661  a.u.
     unit-cell volume          =    1711.7541 (a.u.)^3
     number of atoms/cell      =           18
     number of atomic types    =            4
     number of electrons       =       152.00
     number of Kohn-Sham states=          210
     kinetic-energy cutoff     =      60.0000  Ry
     charge density cutoff     =     480.0000  Ry
     scf convergence threshold =      1.0E-08
     mixing beta               =       0.4000
     number of iterations used =            8  plain     mixing
     Exchange-correlation= PBE
                           (   1   4   3   4   0   0   0)

     celldm(1)=  12.366075  celldm(2)=   0.000000  celldm(3)=   0.000000
     celldm(4)=   0.000000  celldm(5)=   0.000000  celldm(6)=   0.000000

     crystal axes: (cart. coord. in units of alat)
               a(1) = (   0.000000   1.000000   0.000000 )  
               a(2) = (   0.898032   0.000000   0.000000 )  
               a(3) = (   0.000000  -0.438695  -1.007985 )  

     reciprocal axes: (cart. coord. in units 2 pi/alat)
               b(1) = (  0.000000  1.000000 -0.435220 )  
               b(2) = (  1.113546 -0.000000  0.000000 )  
               b(3) = (  0.000000  0.000000 -0.992079 )  


     PseudoPot. # 1 for Be read from file:
     /mnt/d/DeepESense/pseudo/SSSP_1.3.0_PBE_efficiency/be_pbe_v1.4.uspp.F.UPF
     MD5 check sum: 5ecff1440924c7c98ad504bef30f5264
     Pseudo is Ultrasoft, Zval =  4.0
     Generated by new atomic code, or converted to UPF format
     Using radial grid of  769 points,  6 beta functions with: 
                l(1) =   0
                l(2) =   0
                l(3) =   0
                l(4) =   1
                l(5) =   1
                l(6) =   2
     Q(r) pseudized with 10 coefficients,  rinner =    1.000   1.000   1.000
                                                       1.000   1.000

     PseudoPot. # 2 for F  read from file:
     /mnt/d/DeepESense/pseudo/SSSP_1.3.0_PBE_efficiency/f_pbe_v1.4.uspp.F.UPF
     MD5 check sum: 4c38b6a325caf53ec0e86aed9459de46
     Pseudo is Ultrasoft, Zval =  7.0
     Generated by new atomic code, or converted to UPF format
     Using radial grid of  799 points,  4 beta functions with: 
                l(1) =   0
                l(2) =   0
                l(3) =   1
                l(4) =   1
     Q(r) pseudized with  8 coefficients,  rinner =    0.950   0.950   0.950


     PseudoPot. # 3 for Ho read from file:
     /mnt/d/DeepESense/pseudo/SSSP_1.3.0_PBE_efficiency/Ho.paw.z_21.atompaw.wentzcovitch.v1.2.upf
     MD5 check sum: f900adcc49abc9ab8113872cdbacec3e
     Pseudo is Projector augmented-wave + core cor, Zval = 21.0
     Generated using ATOMPAW code
     Shape of augmentation charge: BESSEL
     Using radial grid of 1114 points,  8 beta functions with: 
                l(1) =   0
                l(2) =   0
                l(3) =   1
                l(4) =   1
                l(5) =   2
                l(6) =   2
                l(7) =   3
                l(8) =   3
     Q(r) pseudized with 0 coefficients 


     PseudoPot. # 4 for Rb read from file:
     /mnt/d/DeepESense/pseudo/SSSP_1.3.0_PBE_efficiency/Rb_ONCV_PBE-1.0.oncvpsp.upf
     MD5 check sum: 55a5172d6bfbce6759a58e35d43f6aa9
     Pseudo is Norm-conserving, Zval =  9.0
     Generated using ONCVPSP code by D. R. Hamann
     Using radial grid of 2308 points,  6 beta functions with: 
                l(1) =   0
                l(2) =   0
                l(3) =   1
                l(4) =   1
                l(5) =   2
                l(6) =   2

     atomic species   valence    mass     pseudopotential
     Be                4.00     9.01220     Be( 1.00)
     F                 7.00    18.99840     F ( 1.00)
     Ho               21.00   164.93030     Ho( 1.00)
     Rb                9.00    85.46780     Rb( 1.00)

      4 Sym. Ops., with inversion, found ( 2 have fractional translation)



   Cartesian axes

     site n.     atom                  positions (alat units)
         1        Rb     tau(   1) = (   0.6735241   0.5769421  -0.7965608  )
         2        Rb     tau(   2) = (   0.2245080  -0.0156368  -0.2114238  )
         3        Ho     tau(   3) = (   0.6735241   0.5301821  -0.1827305  )
         4        Ho     tau(   4) = (   0.2245080   0.0311232  -0.8252541  )
         5        Be     tau(   5) = (   0.6735241   0.0295012  -0.4698428  )
         6        Be     tau(   6) = (   0.2245080   0.5318041  -0.5381418  )
         7        F      tau(   7) = (   0.4801463  -0.0224020  -0.6011862  )
         8        F      tau(   8) = (   0.4178858   0.5837074  -0.4067984  )
         9        F      tau(   9) = (   0.0311303   0.5837074  -0.4067984  )
        10        F      tau(  10) = (   0.8669018  -0.0224020  -0.6011862  )
        11        F      tau(  11) = (   0.6735241   0.2589144  -0.4046615  )
        12        F      tau(  12) = (   0.2245080   0.3023909  -0.6033231  )
        13        F      tau(  13) = (   0.4498153   0.3126370  -0.0327766  )
        14        F      tau(  14) = (   0.4482168   0.2486684  -0.9752080  )
        15        F      tau(  15) = (   0.0007992   0.2486684  -0.9752080  )
        16        F      tau(  16) = (   0.8972329   0.3126370  -0.0327766  )
        17        F      tau(  17) = (   0.6735241  -0.1108309  -0.2702679  )
        18        F      tau(  18) = (   0.2245080   0.6721362  -0.7377167  )

     number of k points=    33  Marzari-Vanderbilt smearing, width (Ry)=  0.0050
                       cart. coord. in units 2pi/alat
        k(    1) = (   0.0000000   0.0000000   0.0000000), wk =   0.0200000
        k(    2) = (   0.0000000   0.0000000  -0.2480197), wk =   0.0400000
        k(    3) = (   0.0000000   0.0000000   0.4960393), wk =   0.0200000
        k(    4) = (   0.2227092   0.0000000   0.0000000), wk =   0.0400000
        k(    5) = (   0.2227092   0.0000000  -0.2480197), wk =   0.0800000
        k(    6) = (   0.2227092   0.0000000   0.4960393), wk =   0.0400000
        k(    7) = (   0.4454184   0.0000000   0.0000000), wk =   0.0400000
        k(    8) = (   0.4454184   0.0000000  -0.2480197), wk =   0.0800000
        k(    9) = (   0.4454184   0.0000000   0.4960393), wk =   0.0400000
        k(   10) = (   0.0000000   0.2000000  -0.0870439), wk =   0.0400000
        k(   11) = (   0.0000000   0.2000000  -0.3350636), wk =   0.0400000
        k(   12) = (   0.0000000   0.2000000   0.4089954), wk =   0.0400000
        k(   13) = (   0.0000000   0.2000000   0.1609757), wk =   0.0400000
        k(   14) = (   0.2227092   0.2000000  -0.0870439), wk =   0.0800000
        k(   15) = (   0.2227092   0.2000000  -0.3350636), wk =   0.0800000
        k(   16) = (   0.2227092   0.2000000   0.4089954), wk =   0.0800000
        k(   17) = (   0.2227092   0.2000000   0.1609757), wk =   0.0800000
        k(   18) = (   0.4454184   0.2000000  -0.0870439), wk =   0.0800000
        k(   19) = (   0.4454184   0.2000000  -0.3350636), wk =   0.0800000
        k(   20) = (   0.4454184   0.2000000   0.4089954), wk =   0.0800000
        k(   21) = (   0.4454184   0.2000000   0.1609757), wk =   0.0800000
        k(   22) = (   0.0000000   0.4000000  -0.1740879), wk =   0.0400000
        k(   23) = (   0.0000000   0.4000000  -0.4221075), wk =   0.0400000
        k(   24) = (   0.0000000   0.4000000   0.3219515), wk =   0.0400000
        k(   25) = (   0.0000000   0.4000000   0.0739318), wk =   0.0400000
        k(   26) = (   0.2227092   0.4000000  -0.1740879), wk =   0.0800000
        k(   27) = (   0.2227092   0.4000000  -0.4221075), wk =   0.0800000
        k(   28) = (   0.2227092   0.4000000   0.3219515), wk =   0.0800000
        k(   29) = (   0.2227092   0.4000000   0.0739318), wk =   0.0800000
        k(   30) = (   0.4454184   0.4000000  -0.1740879), wk =   0.0800000
        k(   31) = (   0.4454184   0.4000000  -0.4221075), wk =   0.0800000
        k(   32) = (   0.4454184   0.4000000   0.3219515), wk =   0.0800000
        k(   33) = (   0.4454184   0.4000000   0.0739318), wk =   0.0800000

     Dense  grid:   303939 G-vectors     FFT dimensions: (  90,  80,  96)

     Smooth grid:   107517 G-vectors     FFT dimensions: (  64,  60,  72)

     Estimated max dynamical RAM per process >     572.45 MB

     Estimated total dynamical RAM >       4.47 GB

     Initial potential from superposition of free atoms

     starting charge     151.9416, renormalised to     152.0000
     Starting wfcs are  132 randomized atomic wfcs +   78 random wfcs
     Checking if some PAW data can be deallocated... 

     total cpu time spent up to now is       22.5 secs

     per-process dynamical memory:   269.0 Mb

     Self-consistent Calculation

     iteration #  1     ecut=    60.00 Ry     beta= 0.40
     Davidson diagonalization with overlap
     ethr =  1.00E-02,  avg # of iterations =  7.2

     total cpu time spent up to now is      145.8 secs

     total energy              =   -2398.50456995 Ry
     estimated scf accuracy    <       1.99479562 Ry

     iteration #  2     ecut=    60.00 Ry     beta= 0.40
     Davidson diagonalization with overlap
     ethr =  1.31E-03,  avg # of iterations =  1.2

     total cpu time spent up to now is      200.5 secs

     total energy              =   -2398.58321342 Ry
     estimated scf accuracy    <       0.69472765 Ry

     iteration #  3     ecut=    60.00 Ry     beta= 0.40
     Davidson diagonalization with overlap
     ethr =  4.57E-04,  avg # of iterations =  2.0

     total cpu time spent up to now is      261.4 secs

     total energy              =   -2398.99005919 Ry
     estimated scf accuracy    <       0.45837471 Ry

     iteration #  4     ecut=    60.00 Ry     beta= 0.40
     Davidson diagonalization with overlap
     ethr =  3.02E-04,  avg # of iterations =  1.0
     Minimization algorithm failed to find Fermi energy: reverting to bisection
     Possible cause: smearing is larger than the electronic band-gap.

     total cpu time spent up to now is      311.9 secs

     total energy              =   -2399.03112667 Ry
     estimated scf accuracy    <       0.45668355 Ry

     iteration #  5     ecut=    60.00 Ry     beta= 0.40
     Davidson diagonalization with overlap
     ethr =  3.00E-04,  avg # of iterations =  1.0

     total cpu time spent up to now is      363.0 secs

     total energy              =   -2399.09130702 Ry
     estimated scf accuracy    <       0.09519431 Ry

     iteration #  6     ecut=    60.00 Ry     beta= 0.40
     Davidson diagonalization with overlap
     ethr =  6.26E-05,  avg # of iterations =  1.3

     total cpu time spent up to now is      416.7 secs

     total energy              =   -2399.01813676 Ry
     estimated scf accuracy    <       0.29896215 Ry

     iteration #  7     ecut=    60.00 Ry     beta= 0.40
     Davidson diagonalization with overlap
     ethr =  6.26E-05,  avg # of iterations =  1.0

     total cpu time spent up to now is      467.6 secs

     total energy              =   -2399.12558674 Ry
     estimated scf accuracy    <       0.39731962 Ry

     iteration #  8     ecut=    60.00 Ry     beta= 0.40
     Davidson diagonalization with overlap
     ethr =  6.26E-05,  avg # of iterations =  1.0

     total cpu time spent up to now is      517.9 secs

     total energy              =   -2399.11504437 Ry
     estimated scf accuracy    <       0.20007113 Ry

     iteration #  9     ecut=    60.00 Ry     beta= 0.40
     Davidson diagonalization with overlap
     ethr =  6.26E-05,  avg # of iterations =  1.0

     total cpu time spent up to now is      567.8 secs

     total energy              =   -2399.10004222 Ry
     estimated scf accuracy    <       0.30169728 Ry

     iteration # 10     ecut=    60.00 Ry     beta= 0.40
     Davidson diagonalization with overlap
     ethr =  6.26E-05,  avg # of iterations =  1.0

     total cpu time spent up to now is      619.0 secs

     total energy              =   -2399.12164278 Ry
     estimated scf accuracy    <       0.07674431 Ry

     iteration # 11     ecut=    60.00 Ry     beta= 0.40
     Davidson diagonalization with overlap
     ethr =  5.05E-05,  avg # of iterations =  1.4

     total cpu time spent up to now is      672.2 secs

     total energy              =   -2399.12237775 Ry
     estimated scf accuracy    <       0.04184299 Ry

     iteration # 12     ecut=    60.00 Ry     beta= 0.40
     Davidson diagonalization with overlap
     ethr =  2.75E-05,  avg # of iterations =  1.2

     total cpu time spent up to now is      726.7 secs

     total energy              =   -2399.12788106 Ry
     estimated scf accuracy    <       0.04376235 Ry

     iteration # 13     ecut=    60.00 Ry     beta= 0.40
     Davidson diagonalization with overlap
     ethr =  2.75E-05,  avg # of iterations =  1.0

     total cpu time spent up to now is      779.0 secs

     total energy              =   -2399.13098274 Ry
     estimated scf accuracy    <       0.01435842 Ry

     iteration # 14     ecut=    60.00 Ry     beta= 0.40
     Davidson diagonalization with overlap
     ethr =  9.45E-06,  avg # of iterations =  3.8

     total cpu time spent up to now is      845.0 secs

     total energy              =   -2399.13602463 Ry
     estimated scf accuracy    <       0.01188826 Ry

     iteration # 15     ecut=    60.00 Ry     beta= 0.40
     Davidson diagonalization with overlap
     ethr =  7.82E-06,  avg # of iterations =  1.1

     total cpu time spent up to now is      896.6 secs

     total energy              =   -2399.13562828 Ry
     estimated scf accuracy    <       0.02190098 Ry

     iteration # 16     ecut=    60.00 Ry     beta= 0.40
     Davidson diagonalization with overlap
     ethr =  7.82E-06,  avg # of iterations =  1.0

     total cpu time spent up to now is      948.0 secs

     total energy              =   -2399.13541957 Ry
     estimated scf accuracy    <       0.00767455 Ry

     iteration # 17     ecut=    60.00 Ry     beta= 0.40
     Davidson diagonalization with overlap
     ethr =  5.05E-06,  avg # of iterations =  1.2

     total cpu time spent up to now is     1002.4 secs

     total energy              =   -2399.13634492 Ry
     estimated scf accuracy    <       0.00135339 Ry

     iteration # 18     ecut=    60.00 Ry     beta= 0.40
     Davidson diagonalization with overlap
     ethr =  8.90E-07,  avg # of iterations =  4.5

     total cpu time spent up to now is     1073.0 secs

     total energy              =   -2399.13713114 Ry
     estimated scf accuracy    <       0.00218988 Ry

     iteration # 19     ecut=    60.00 Ry     beta= 0.40
     Davidson diagonalization with overlap
     ethr =  8.90E-07,  avg # of iterations =  1.0

     total cpu time spent up to now is     1124.1 secs

     total energy              =   -2399.13760977 Ry
     estimated scf accuracy    <       0.00061837 Ry

     iteration # 20     ecut=    60.00 Ry     beta= 0.40
     Davidson diagonalization with overlap
     ethr =  4.07E-07,  avg # of iterations =  1.0

     total cpu time spent up to now is     1174.1 secs

     total energy              =   -2399.13778432 Ry
     estimated scf accuracy    <       0.00041316 Ry

     iteration # 21     ecut=    60.00 Ry     beta= 0.40
     Davidson diagonalization with overlap
     ethr =  2.72E-07,  avg # of iterations =  1.0

     total cpu time spent up to now is     1225.1 secs

     total energy              =   -2399.13778438 Ry
     estimated scf accuracy    <       0.00038777 Ry

     iteration # 22     ecut=    60.00 Ry     beta= 0.40
     Davidson diagonalization with overlap
     ethr =  2.55E-07,  avg # of iterations =  1.0

     total cpu time spent up to now is     1276.6 secs

     total energy              =   -2399.13803896 Ry
     estimated scf accuracy    <       0.00026988 Ry

     iteration # 23     ecut=    60.00 Ry     beta= 0.40
     Davidson diagonalization with overlap
     ethr =  1.78E-07,  avg # of iterations =  1.0

     total cpu time spent up to now is     1329.0 secs

     total energy              =   -2399.13823024 Ry
     estimated scf accuracy    <       0.00051271 Ry

     iteration # 24     ecut=    60.00 Ry     beta= 0.40
     Davidson diagonalization with overlap
     ethr =  1.78E-07,  avg # of iterations =  1.0

     total cpu time spent up to now is     1381.2 secs

     total energy              =   -2399.13819649 Ry
     estimated scf accuracy    <       0.00090765 Ry

     iteration # 25     ecut=    60.00 Ry     beta= 0.40
     Davidson diagonalization with overlap
     ethr =  1.78E-07,  avg # of iterations =  1.0

     total cpu time spent up to now is     1432.3 secs

     total energy              =   -2399.13824747 Ry
     estimated scf accuracy    <       0.00053463 Ry

     iteration # 26     ecut=    60.00 Ry     beta= 0.40
     Davidson diagonalization with overlap
     ethr =  1.78E-07,  avg # of iterations =  1.0

     total cpu time spent up to now is     1483.1 secs

     total energy              =   -2399.13822950 Ry
     estimated scf accuracy    <       0.00067101 Ry

     iteration # 27     ecut=    60.00 Ry     beta= 0.40
     Davidson diagonalization with overlap
     ethr =  1.78E-07,  avg # of iterations =  1.2

     total cpu time spent up to now is     1533.9 secs

     total energy              =   -2399.13819399 Ry
     estimated scf accuracy    <       0.00049569 Ry

     iteration # 28     ecut=    60.00 Ry     beta= 0.40
     Davidson diagonalization with overlap
     ethr =  1.78E-07,  avg # of iterations =  1.0

     total cpu time spent up to now is     1584.2 secs

     total energy              =   -2399.13751251 Ry
     estimated scf accuracy    <       0.00039266 Ry

     iteration # 29     ecut=    60.00 Ry     beta= 0.40
     Davidson diagonalization with overlap
     ethr =  1.78E-07,  avg # of iterations =  1.0

     total cpu time spent up to now is     1634.8 secs

     total energy              =   -2399.13736885 Ry
     estimated scf accuracy    <       0.00073197 Ry

     iteration # 30     ecut=    60.00 Ry     beta= 0.40
     Davidson diagonalization with overlap
     ethr =  1.78E-07,  avg # of iterations =  1.0

     total cpu time spent up to now is     1685.4 secs

     total energy              =   -2399.13756461 Ry
     estimated scf accuracy    <       0.00019949 Ry

     iteration # 31     ecut=    60.00 Ry     beta= 0.40
     Davidson diagonalization with overlap
     ethr =  1.31E-07,  avg # of iterations =  1.0

     total cpu time spent up to now is     1736.0 secs

     total energy              =   -2399.13751021 Ry
     estimated scf accuracy    <       0.00029096 Ry

     iteration # 32     ecut=    60.00 Ry     beta= 0.40
     Davidson diagonalization with overlap
     ethr =  1.31E-07,  avg # of iterations =  1.0

     total cpu time spent up to now is     1787.0 secs

     total energy              =   -2399.13760975 Ry
     estimated scf accuracy    <       0.00007261 Ry

     iteration # 33     ecut=    60.00 Ry     beta= 0.40
     Davidson diagonalization with overlap
     ethr =  4.78E-08,  avg # of iterations =  1.0

     total cpu time spent up to now is     1836.4 secs

     total energy              =   -2399.13762271 Ry
     estimated scf accuracy    <       0.00003808 Ry

     iteration # 34     ecut=    60.00 Ry     beta= 0.40
     Davidson diagonalization with overlap
     ethr =  2.51E-08,  avg # of iterations =  1.0

     total cpu time spent up to now is     1888.5 secs

     total energy              =   -2399.13762977 Ry
     estimated scf accuracy    <       0.00004619 Ry

     iteration # 35     ecut=    60.00 Ry     beta= 0.40
     Davidson diagonalization with overlap
     ethr =  2.51E-08,  avg # of iterations =  1.0

     total cpu time spent up to now is     1939.0 secs

     total energy              =   -2399.13758104 Ry
     estimated scf accuracy    <       0.00006064 Ry

     iteration # 36     ecut=    60.00 Ry     beta= 0.40
     Davidson diagonalization with overlap
     ethr =  2.51E-08,  avg # of iterations =  1.0

     total cpu time spent up to now is     1989.5 secs

     total energy              =   -2399.13762005 Ry
     estimated scf accuracy    <       0.00006718 Ry

     iteration # 37     ecut=    60.00 Ry     beta= 0.40
     Davidson diagonalization with overlap
     ethr =  2.51E-08,  avg # of iterations =  1.0

     total cpu time spent up to now is     2040.1 secs

     total energy              =   -2399.13766875 Ry
     estimated scf accuracy    <       0.00003222 Ry

     iteration # 38     ecut=    60.00 Ry     beta= 0.40
     Davidson diagonalization with overlap
     ethr =  2.12E-08,  avg # of iterations =  1.0

     total cpu time spent up to now is     2091.1 secs

     total energy              =   -2399.13769141 Ry
     estimated scf accuracy    <       0.00005385 Ry

     iteration # 39     ecut=    60.00 Ry     beta= 0.40
     Davidson diagonalization with overlap
     ethr =  2.12E-08,  avg # of iterations =  1.0

     total cpu time spent up to now is     2141.8 secs

     total energy              =   -2399.13758879 Ry
     estimated scf accuracy    <       0.00004715 Ry

     iteration # 40     ecut=    60.00 Ry     beta= 0.40
     Davidson diagonalization with overlap
     ethr =  2.12E-08,  avg # of iterations =  1.0

     total cpu time spent up to now is     2192.8 secs

     total energy              =   -2399.13762796 Ry
     estimated scf accuracy    <       0.00020108 Ry

     iteration # 41     ecut=    60.00 Ry     beta= 0.40
     Davidson diagonalization with overlap
     ethr =  2.12E-08,  avg # of iterations =  1.0

     total cpu time spent up to now is     2242.8 secs

     total energy              =   -2399.13770381 Ry
     estimated scf accuracy    <       0.00007153 Ry

     iteration # 42     ecut=    60.00 Ry     beta= 0.40
     Davidson diagonalization with overlap
     ethr =  2.12E-08,  avg # of iterations =  1.0

     total cpu time spent up to now is     2294.6 secs

     total energy              =   -2399.13772453 Ry
     estimated scf accuracy    <       0.00005215 Ry

     iteration # 43     ecut=    60.00 Ry     beta= 0.40
     Davidson diagonalization with overlap
     ethr =  2.12E-08,  avg # of iterations =  1.0

     total cpu time spent up to now is     2394.4 secs

     total energy              =   -2399.13764302 Ry
     estimated scf accuracy    <       0.00010542 Ry

     iteration # 44     ecut=    60.00 Ry     beta= 0.40
     Davidson diagonalization with overlap
     ethr =  2.12E-08,  avg # of iterations =  1.0

     total cpu time spent up to now is     2555.7 secs

     total energy              =   -2399.13764652 Ry
     estimated scf accuracy    <       0.00006819 Ry

     iteration # 45     ecut=    60.00 Ry     beta= 0.40
     Davidson diagonalization with overlap
     ethr =  2.12E-08,  avg # of iterations =  1.0

     total cpu time spent up to now is     2728.1 secs

     total energy              =   -2399.13757661 Ry
     estimated scf accuracy    <       0.00008597 Ry

     iteration # 46     ecut=    60.00 Ry     beta= 0.40
     Davidson diagonalization with overlap
     ethr =  2.12E-08,  avg # of iterations =  1.0

     total cpu time spent up to now is     2890.6 secs

     total energy              =   -2399.13746426 Ry
     estimated scf accuracy    <       0.00006693 Ry

     iteration # 47     ecut=    60.00 Ry     beta= 0.40
     Davidson diagonalization with overlap
     ethr =  2.12E-08,  avg # of iterations =  2.0

     total cpu time spent up to now is     3076.6 secs

     total energy              =   -2399.13759756 Ry
     estimated scf accuracy    <       0.00001232 Ry

     iteration # 48     ecut=    60.00 Ry     beta= 0.40
     Davidson diagonalization with overlap
     ethr =  8.11E-09,  avg # of iterations =  1.0

     total cpu time spent up to now is     3248.2 secs

     total energy              =   -2399.13759246 Ry
     estimated scf accuracy    <       0.00004108 Ry

     iteration # 49     ecut=    60.00 Ry     beta= 0.40
     Davidson diagonalization with overlap
     ethr =  8.11E-09,  avg # of iterations =  1.0

     total cpu time spent up to now is     3436.8 secs

     total energy              =   -2399.13759500 Ry
     estimated scf accuracy    <       0.00000480 Ry

     iteration # 50     ecut=    60.00 Ry     beta= 0.40
     Davidson diagonalization with overlap
     ethr =  3.16E-09,  avg # of iterations =  1.0

     total cpu time spent up to now is     3566.2 secs

     total energy              =   -2399.13759694 Ry
     estimated scf accuracy    <       0.00000523 Ry

     iteration # 51     ecut=    60.00 Ry     beta= 0.40
     Davidson diagonalization with overlap
     ethr =  3.16E-09,  avg # of iterations =  1.0

     total cpu time spent up to now is     3724.0 secs

     total energy              =   -2399.13759681 Ry
     estimated scf accuracy    <       0.00000108 Ry

     iteration # 52     ecut=    60.00 Ry     beta= 0.40
     Davidson diagonalization with overlap
     ethr =  7.08E-10,  avg # of iterations =  1.0

     total cpu time spent up to now is     3906.0 secs

     total energy              =   -2399.13759823 Ry
     estimated scf accuracy    <       0.00000026 Ry

     iteration # 53     ecut=    60.00 Ry     beta= 0.40
     Davidson diagonalization with overlap
     ethr =  1.71E-10,  avg # of iterations =  1.0

     total cpu time spent up to now is     4004.8 secs

     total energy              =   -2399.13759859 Ry
     estimated scf accuracy    <       0.00000139 Ry

     iteration # 54     ecut=    60.00 Ry     beta= 0.40
     Davidson diagonalization with overlap
     ethr =  1.71E-10,  avg # of iterations =  1.0

     total cpu time spent up to now is     4156.7 secs

     total energy              =   -2399.13759895 Ry
     estimated scf accuracy    <       0.00000004 Ry

     iteration # 55     ecut=    60.00 Ry     beta= 0.40
     Davidson diagonalization with overlap
     ethr =  2.68E-11,  avg # of iterations =  1.0

     total cpu time spent up to now is     4349.7 secs

     total energy              =   -2399.13759904 Ry
     estimated scf accuracy    <       0.00000005 Ry

     iteration # 56     ecut=    60.00 Ry     beta= 0.40
     Davidson diagonalization with overlap
     ethr =  2.68E-11,  avg # of iterations =  1.0

     total cpu time spent up to now is     4535.4 secs

     End of self-consistent calculation

          k = 0.0000 0.0000 0.0000 ( 13467 PWs)   bands (ev):

   -92.7610 -92.7610 -41.1094 -41.0984 -19.3725 -19.3179 -18.1524 -18.1454
   -17.7822 -17.7755 -17.6317 -17.3998 -17.3562 -17.2066 -17.1420 -16.9362
   -16.7483 -16.5205 -15.6704 -15.6518 -15.6369 -15.0342 -14.8894 -14.7619
    -3.6376  -3.6080  -3.5078  -3.4843  -3.4761  -3.4448  -0.8171  -0.7457
    -0.3776  -0.1134   0.0381   0.2619   0.2917   0.3203   0.5875   0.6639
     0.8541   1.0035   1.1027   1.1758   1.3016   1.3704   1.4705   1.4975
     1.7479   1.7485   1.9293   2.0177   2.0229   2.0539   2.0851   2.2481
     2.2624   2.3121   2.3998   2.4430   2.5417   2.5606   2.6005   2.6309
     2.6721   2.7379   4.4838   4.5009   4.5075   4.5254   4.5400   4.6053
     4.6387   4.6406   4.6584   4.6809   4.6861   4.6903   4.7112   4.7288
    10.3814  11.6241  11.7682  12.4256  12.4476  12.8000  12.9033  13.3066
    13.4520  13.5480  13.9817  14.0442  14.2808  14.5782  14.5852  14.7757
    14.9103  15.1078  15.1310  15.2111  15.5018  15.8957  16.2104  16.2326
    16.3594  17.3798  17.4210  17.6437  17.8997  18.6534  18.6811  18.9774
    19.2958  19.4837  19.4971  19.5644  19.9972  20.2431  20.4556  21.0134
    21.0896  21.1826  21.7688  21.7751  21.9038  22.0884  22.3819  22.8533
    22.8567  23.7317  23.7780  24.0179  24.1898  24.2814  24.6982  24.8359
    25.1210  25.6081  25.8947  25.9523  26.6110  26.6425  26.6836  27.1244
    27.4682  27.5039  27.8020  28.0056  28.1731  28.3369  28.5640  28.5950
    28.7990  28.8919  29.2185  29.7406  29.7966  29.8438  30.0496  30.1402
    30.2771  30.4774  30.9588  31.2454  31.4676  31.5236  31.5302  31.6089
    31.9879  31.9949  32.5922  32.8394  33.0866  33.4051  33.7380  33.7811
    33.9861  34.0523  34.2740  34.5164  34.7170  34.9113  34.9341  35.1649
    35.6480  35.9815  36.3884  36.3981  36.7545  36.7591  36.9555  37.0831
    37.1269  37.6196  37.6415  37.7628  37.7943  38.0163  38.0308  38.4941
    38.5362  38.6706  38.7789  38.9603  39.3880  39.4648  39.6412  39.7239
    39.9492  40.1947

          k = 0.0000 0.0000-0.2480 ( 13456 PWs)   bands (ev):

   -92.7610 -92.7610 -41.1094 -41.0984 -19.3692 -19.3233 -18.1338 -18.1123
   -17.8577 -17.7873 -17.6630 -17.3909 -17.3319 -17.1531 -17.1179 -16.9471
   -16.7580 -16.5205 -15.7176 -15.6594 -15.6341 -15.0050 -14.8905 -14.7583
    -3.6514  -3.6196  -3.5033  -3.4715  -3.4539  -3.4517  -0.8789  -0.7881
    -0.3226  -0.1220   0.0448   0.2086   0.2913   0.3391   0.6645   0.8096
     0.9366   1.0300   1.0946   1.1963   1.2501   1.2806   1.2986   1.6070
     1.6821   1.7670   1.9659   1.9952   2.0507   2.0757   2.1285   2.1347
     2.2068   2.3213   2.4097   2.4798   2.4998   2.5222   2.5966   2.6600
     2.6601   2.7513   4.4881   4.5002   4.5045   4.5278   4.5419   4.6037
     4.6379   4.6413   4.6507   4.6752   4.6820   4.6969   4.7221   4.7228
    10.7682  11.6609  11.7294  12.3939  12.4965  12.5997  12.9572  13.1530
    13.5137  13.5812  13.9293  13.9806  14.2699  14.2735  14.5688  14.7300
    14.8822  14.9868  15.0457  15.6035  15.6215  15.8876  16.0397  16.1655
    16.9499  17.2876  17.5070  17.7287  18.2173  18.4576  18.6190  18.6338
    18.8760  19.2954  19.5342  19.8549  19.9491  20.0510  20.6175  20.8826
    21.2074  21.2726  21.5823  21.6551  21.8988  22.1779  22.3440  22.9817
    23.1571  23.4121  23.7254  23.9020  24.3078  24.3962  24.7805  25.2144
    25.3115  25.4445  25.7943  25.8674  26.3877  26.7530  26.8062  27.2706
    27.4047  27.4759  27.7203  27.8919  28.0635  28.2036  28.4883  28.6428
    28.6952  29.0573  29.0894  29.4135  29.5456  29.8245  30.4211  30.5717
    30.7001  30.8512  31.0054  31.0600  31.1898  31.3961  31.6467  31.8960
    32.2129  32.3407  32.7062  32.9703  33.3009  33.4472  33.4977  33.5809
    33.6075  34.1782  34.4143  34.6701  34.7703  34.9570  35.3849  35.3903
    35.5199  35.9232  35.9315  36.4550  36.5560  36.7284  36.7537  36.9595
    37.1013  37.4344  37.4845  37.6635  37.8112  37.8648  38.2140  38.2668
    38.5753  38.8204  39.0076  39.0482  39.2601  39.4458  39.7431  39.8597
    39.9369  40.0515

          k = 0.0000 0.0000 0.4960 ( 13432 PWs)   bands (ev):

   -92.7610 -92.7610 -41.1094 -41.0984 -19.3650 -19.3297 -18.1211 -18.0182
   -17.9840 -17.7933 -17.6935 -17.3984 -17.2905 -17.1048 -17.0956 -16.9608
   -16.7685 -16.5205 -15.7625 -15.6671 -15.6314 -14.9786 -14.8917 -14.7547
    -3.6634  -3.6287  -3.4919  -3.4648  -3.4605  -3.4349  -0.9278  -0.8272
    -0.2840  -0.1298   0.0492   0.1478   0.3227   0.3552   0.8343   0.9487
     0.9897   1.0245   1.0291   1.1601   1.1632   1.2369   1.3387   1.6101
     1.6952   1.7483   1.9285   1.9555   1.9581   2.0561   2.1318   2.1766
     2.1862   2.3773   2.4104   2.4260   2.4797   2.5586   2.6059   2.6278
     2.6629   2.7702   4.4953   4.4989   4.4994   4.5300   4.5439   4.6019
     4.6355   4.6426   4.6451   4.6753   4.6759   4.7008   4.7173   4.7312
    11.4422  11.6545  11.8813  11.9935  12.4705  12.5505  12.6519  12.9276
    13.6229  13.7917  13.8620  13.8730  14.2875  14.3183  14.3222  14.7966
    14.8806  14.9896  15.0924  15.5843  15.6775  15.8684  15.9390  16.3671
    17.1685  17.3985  17.4885  17.8658  18.2531  18.3718  18.4938  18.9062
    18.9846  18.9846  19.1138  19.3801  20.0837  20.0894  20.6114  20.8710
    21.2393  21.3399  21.4861  21.7215  22.0302  22.2971  22.4429  22.6130
    22.9503  23.5533  23.7601  23.9595  24.0948  24.5461  24.6119  25.4724
    25.5500  25.6918  25.7579  25.8014  26.6967  26.8302  26.8527  27.0363
    27.4034  27.7590  27.7749  27.8767  27.9654  28.1457  28.2125  28.2635
    28.6820  28.9755  29.2904  29.4102  29.5406  29.9362  30.3657  30.4712
    30.5686  30.5810  30.7216  31.3527  31.4235  31.6730  31.7841  31.9540
    32.3100  32.4460  32.5701  32.7157  33.3755  33.4778  33.5862  33.7249
    34.3072  34.6101  34.6794  34.6860  34.9450  35.0523  35.5174  35.6356
    35.8636  36.0014  36.2346  36.2592  36.3881  36.4732  36.5011  36.5777
    36.9876  37.0051  37.2734  37.3656  37.7260  37.7642  38.1503  38.3984
    38.4708  38.5113  38.7594  39.0168  39.1503  39.2883  39.5036  39.5817
    39.7838  40.2548

          k = 0.2227 0.0000 0.0000 ( 13443 PWs)   bands (ev):

   -92.7610 -92.7610 -41.1084 -41.0995 -19.3664 -19.3220 -18.1677 -18.1003
   -17.8147 -17.7432 -17.7042 -17.3942 -17.3231 -17.2452 -17.0658 -16.9518
   -16.7440 -16.5797 -15.7059 -15.6612 -15.5300 -14.9808 -14.9426 -14.7910
    -3.6263  -3.6234  -3.5041  -3.4680  -3.4448  -3.4339  -0.8219  -0.7712
    -0.3494  -0.1981   0.0459   0.2324   0.3112   0.3183   0.6277   0.8000
     0.9198   1.0878   1.1274   1.2497   1.2684   1.2997   1.3955   1.5163
     1.5851   1.8659   1.8832   1.9500   2.0346   2.0912   2.1174   2.2175
     2.2757   2.2779   2.3950   2.4034   2.4391   2.5311   2.5724   2.6338
     2.6500   2.7202   4.4770   4.4945   4.5094   4.5257   4.5409   4.5817
     4.6436   4.6570   4.6615   4.6803   4.6856   4.6908   4.7016   4.7255
    10.6899  11.6651  11.8313  12.5187  12.5316  12.8552  12.9348  13.3402
    13.4364  13.6760  13.8915  14.0196  14.1122  14.1404  14.5413  14.6364
    14.9421  15.0744  15.1469  15.2537  15.3262  15.6833  16.1320  16.3404
    16.8677  17.3340  17.5637  17.6507  18.0358  18.4492  18.5844  18.9164
    19.1408  19.5021  19.6930  19.8286  19.9531  20.1214  20.4603  20.8054
    21.2171  21.3501  21.4254  21.5962  22.3731  22.3858  22.6000  22.7009
    23.0568  23.5936  23.9155  24.0802  24.1068  24.4313  24.5973  24.8446
    25.1558  25.7587  26.0061  26.1193  26.2266  26.3140  26.7945  26.9012
    27.1096  27.2869  27.4176  28.1241  28.1395  28.2933  28.3198  28.4340
    28.5304  28.9905  29.3570  29.4333  29.9845  30.0444  30.1552  30.3523
    30.5749  30.7790  31.0186  31.1674  31.2596  31.4337  31.9115  31.9162
    32.2312  32.4263  32.5144  32.7113  33.1308  33.2946  33.4032  33.8141
    33.8906  34.2478  34.2730  34.2845  34.9542  35.0420  35.0816  35.3203
    35.4047  35.7267  36.0717  36.1687  36.6621  36.7272  36.8596  36.9150
    37.1341  37.3540  37.4454  37.7037  38.0210  38.0520  38.2088  38.6193
    38.6902  38.8582  38.8680  39.0883  39.3349  39.4642  39.5865  39.8220
    40.0756  40.1211

          k = 0.2227 0.0000-0.2480 ( 13428 PWs)   bands (ev):

   -92.7610 -92.7610 -41.1084 -41.0995 -19.3638 -19.3267 -18.1871 -18.0334
   -17.8668 -17.7470 -17.7232 -17.3907 -17.2879 -17.2259 -17.0840 -16.9544
   -16.7509 -16.5769 -15.7181 -15.6622 -15.5286 -14.9693 -14.9436 -14.7932
    -3.6379  -3.6131  -3.4975  -3.4658  -3.4523  -3.4269  -0.8513  -0.7820
    -0.3018  -0.1854   0.0328   0.2388   0.2507   0.3306   0.6851   0.8321
     0.9994   1.0532   1.1198   1.1622   1.2161   1.3118   1.3856   1.5410
     1.6114   1.8444   1.9082   1.9282   2.0349   2.0702   2.1317   2.1484
     2.1844   2.3413   2.3880   2.4621   2.4763   2.5104   2.5425   2.6438
     2.6646   2.7402   4.4802   4.4928   4.5089   4.5275   4.5421   4.5801
     4.6439   4.6516   4.6584   4.6749   4.6831   4.6961   4.7122   4.7209
    11.0350  11.6955  11.7982  12.4687  12.5597  12.6776  12.9908  13.2340
    13.5281  13.6014  13.8421  13.9447  14.0855  14.2931  14.5265  14.6674
    14.8501  14.9148  15.0414  15.2967  15.3277  15.8417  16.0047  16.5623
    16.7270  17.3273  17.5892  17.8670  18.1050  18.3842  18.6407  18.7326
    19.1530  19.3533  19.6403  19.9100  19.9931  20.1042  20.5295  20.7059
    20.9285  21.4437  21.6186  21.7585  22.0035  22.0853  22.7040  23.0307
    23.1717  23.4230  23.5541  23.7949  24.3745  24.6554  24.8904  24.9275
    25.2447  25.6638  25.8234  25.9120  25.9568  26.5080  26.7261  26.9765
    27.2906  27.4379  27.6456  27.7517  28.0784  28.3472  28.4551  28.5024
    28.9179  29.1425  29.3243  29.5929  29.8675  30.0084  30.1613  30.4310
    30.6374  30.7795  30.7921  31.0550  31.3056  31.5570  31.6534  32.0343
    32.1957  32.3386  32.5902  33.0900  33.2444  33.3937  33.5183  33.6621
    33.7388  34.2359  34.3267  34.4882  34.6911  34.8186  35.1949  35.5467
    35.7711  35.9022  36.0008  36.1841  36.5399  36.7292  36.8433  37.0619
    37.0780  37.3913  37.5305  37.6943  37.9136  38.0232  38.0834  38.3811
    38.6000  38.6371  38.8808  38.9870  39.2222  39.5350  39.6705  39.8220
    40.0955  40.1323

          k = 0.2227 0.0000 0.4960 ( 13428 PWs)   bands (ev):

   -92.7610 -92.7610 -41.1084 -41.0995 -19.3605 -19.3321 -18.1934 -17.9738
   -17.8660 -17.8091 -17.7507 -17.3811 -17.2238 -17.2010 -17.1335 -16.9595
   -16.7567 -16.5742 -15.7101 -15.6831 -15.5273 -14.9558 -14.9448 -14.7968
    -3.6280  -3.6276  -3.4888  -3.4626  -3.4458  -3.4336  -0.8749  -0.7933
    -0.2534  -0.1902   0.0331   0.1745   0.2667   0.3368   0.7764   0.8900
     1.0119   1.0202   1.0767   1.2146   1.2164   1.2783   1.2975   1.5566
     1.6592   1.7036   1.8498   1.9754   2.0437   2.0722   2.1210   2.1635
     2.1995   2.3724   2.3950   2.4393   2.4564   2.5198   2.5643   2.6267
     2.6717   2.7650   4.4853   4.4893   4.5082   4.5296   4.5433   4.5783
     4.6428   4.6440   4.6604   4.6732   4.6813   4.7001   4.7150   4.7199
    11.5661  11.6928  12.0291  12.1378  12.4873  12.6410  12.7457  12.9552
    13.7032  13.7400  13.8294  13.8655  14.1203  14.2515  14.4413  14.7286
    14.7751  14.9170  15.0685  15.3058  15.3466  15.8601  16.2778  16.3151
    16.6920  17.1610  17.6698  17.9875  18.2100  18.2409  18.8215  19.0352
    19.1227  19.2090  19.3985  19.5632  19.9173  20.2904  20.4151  20.8259
    21.3709  21.5271  21.6126  21.6636  21.9416  21.9589  22.1993  22.8894
    23.2496  23.5085  23.5399  23.8094  24.1478  24.3747  24.8418  25.0326
    25.4317  25.7878  25.8054  26.1064  26.3242  26.7555  26.9196  27.0660
    27.2532  27.4412  27.7406  27.9513  28.1043  28.3173  28.4389  28.5700
    28.7035  28.8699  29.2994  29.5381  29.7983  30.0117  30.1486  30.2113
    30.4951  30.5344  30.9925  31.0611  31.5835  31.5909  31.7720  32.0037
    32.2383  32.4286  32.6045  32.9196  33.2727  33.2798  33.3805  33.5667
    34.0108  34.5217  34.5631  34.6517  35.2044  35.2967  35.3598  35.5216
    35.6820  35.8804  36.1471  36.1513  36.3042  36.6233  36.9061  36.9533
    37.0990  37.2852  37.4122  37.5029  37.7180  38.0308  38.2682  38.3726
    38.4482  38.6831  38.8409  39.0955  39.1521  39.3140  39.3255  39.5541
    39.9006  39.9292

          k = 0.4454 0.0000 0.0000 ( 13430 PWs)   bands (ev):

   -92.7610 -92.7610 -41.1056 -41.1022 -19.3511 -19.3341 -18.1488 -18.0340
   -17.9453 -17.7629 -17.6287 -17.4980 -17.2845 -17.1617 -17.0258 -17.0008
   -16.7242 -16.6715 -15.7348 -15.6822 -15.3085 -15.0923 -14.9023 -14.8463
    -3.6319  -3.6196  -3.4875  -3.4699  -3.4094  -3.3865  -0.8410  -0.8283
    -0.2810  -0.2662   0.0592   0.1413   0.3373   0.3400   0.7940   0.9550
     1.0418   1.1452   1.1829   1.2141   1.2614   1.3135   1.3877   1.3899
     1.5305   1.6988   1.9318   1.9732   2.0438   2.1291   2.1345   2.1809
     2.2210   2.2264   2.2669   2.3028   2.4099   2.4449   2.5967   2.6054
     2.6517   2.6904   4.4669   4.4730   4.5263   4.5342   4.5385   4.5531
     4.6544   4.6611   4.6728   4.6810   4.6814   4.6857   4.6983   4.7145
    11.3971  11.7006  12.0428  12.6208  12.6993  12.9021  13.0243  13.1594
    13.3338  13.3794  13.6742  13.8345  14.0425  14.1242  14.4409  14.6242
    14.7936  14.8212  15.1589  15.2077  15.3850  15.5914  16.3071  16.3842
    17.3311  17.4045  17.6180  17.6567  17.9404  18.1886  18.5356  18.8104
    19.1756  19.6086  19.6721  19.6883  19.9229  20.1851  20.6112  20.7150
    20.9269  21.2450  21.6111  21.7350  22.5940  22.6292  23.0659  23.1423
    23.5821  23.6686  23.7288  23.8525  24.1882  24.6280  24.7391  25.0646
    25.1693  25.4818  25.6763  25.8041  26.1627  26.1846  26.3391  26.5218
    26.7544  27.0841  27.1242  27.3759  27.6877  28.2855  28.4860  28.5081
    28.7367  29.1289  29.1415  29.6231  30.1135  30.3477  30.3817  30.4637
    30.7063  30.9755  31.1367  31.2804  31.3457  31.5810  31.7713  31.8607
    32.3493  32.5098  32.7093  32.8043  33.3183  33.3678  33.5888  33.8260
    34.0580  34.1617  34.5944  34.6597  34.8502  35.0563  35.0666  35.1801
    35.6660  35.8379  35.9696  36.1582  36.2685  36.3139  36.6767  36.7694
    36.8362  37.3320  37.4165  37.5581  37.7496  38.0582  38.2219  38.3222
    38.6227  38.7076  38.9477  38.9643  39.3180  39.3643  39.6638  39.7887
    39.9910  40.0627

          k = 0.4454 0.0000-0.2480 ( 13423 PWs)   bands (ev):

   -92.7610 -92.7610 -41.1056 -41.1022 -19.3507 -19.3365 -18.1780 -18.0695
   -17.8634 -17.6993 -17.6306 -17.4979 -17.3486 -17.2066 -17.0411 -16.9797
   -16.7244 -16.6667 -15.7103 -15.6617 -15.3089 -15.0933 -14.9123 -14.8588
    -3.6229  -3.6009  -3.4843  -3.4719  -3.4225  -3.3953  -0.8127  -0.7924
    -0.2584  -0.2346   0.0506   0.1380   0.2744   0.3084   0.8035   0.8892
     0.9925   1.0587   1.1504   1.2158   1.2574   1.3083   1.3741   1.4362
     1.6051   1.7000   1.8811   1.9044   2.0573   2.1110   2.1286   2.1779
     2.2045   2.3088   2.3431   2.3894   2.3987   2.4345   2.5486   2.6044
     2.6996   2.7251   4.4685   4.4732   4.5265   4.5337   4.5391   4.5515
     4.6533   4.6616   4.6623   4.6724   4.6895   4.6957   4.6989   4.7129
    11.5827  11.7358  12.0545  12.5135  12.7235  12.8360  13.0122  13.0548
    13.5438  13.6195  13.7081  13.7717  13.8807  14.2850  14.4737  14.6063
    14.6882  14.9146  15.0098  15.0485  15.3336  15.6248  15.9070  16.3053
    17.1035  17.2808  17.7263  17.8503  18.2201  18.3725  18.5757  18.9427
    19.2425  19.4188  19.6395  19.7718  19.9066  20.1227  20.7002  20.8971
    21.0531  21.3404  21.5580  21.8698  21.9811  22.1056  23.0345  23.2252
    23.3238  23.6403  23.6681  23.9579  24.1381  24.4935  24.7643  25.0587
    25.2433  25.6892  25.7854  25.8308  25.9857  26.1155  26.2385  26.6204
    27.0386  27.1933  27.3451  27.6866  27.7873  28.4283  28.6502  28.8197
    28.9084  29.3571  29.4514  29.4968  29.7279  29.9831  30.3020  30.3599
    30.5916  30.8204  30.8728  31.1592  31.3846  31.5663  31.7102  32.0252
    32.3131  32.6521  32.7813  32.9587  33.1523  33.4550  33.8226  33.9549
    34.0983  34.2409  34.3543  34.7746  34.8388  35.1138  35.2350  35.3940
    35.6409  35.7632  36.0043  36.0673  36.2854  36.5071  36.5976  36.8388
    36.9595  37.0745  37.4032  37.5832  37.6363  37.7224  38.0920  38.1893
    38.4343  38.5427  38.7562  38.8093  38.9942  39.4291  39.5051  39.7579
    39.9118  40.1847

          k = 0.4454 0.0000 0.4960 ( 13418 PWs)   bands (ev):

   -92.7610 -92.7610 -41.1056 -41.1022 -19.3499 -19.3393 -18.1977 -18.0976
   -17.7429 -17.6865 -17.6311 -17.4971 -17.3752 -17.3011 -17.0363 -16.9732
   -16.7239 -16.6625 -15.6739 -15.6533 -15.3092 -15.0942 -14.9200 -14.8742
    -3.6076  -3.5865  -3.4816  -3.4728  -3.4333  -3.4087  -0.7823  -0.7529
    -0.2324  -0.2118   0.0426   0.1430   0.2123   0.2699   0.7913   0.9028
     0.9455   1.0087   1.0578   1.2059   1.2129   1.2816   1.4250   1.4563
     1.6993   1.7146   1.8016   1.8677   2.0272   2.0595   2.1735   2.1863
     2.2757   2.3410   2.3674   2.3788   2.4387   2.4721   2.5256   2.5954
     2.7223   2.7546   4.4707   4.4729   4.5263   4.5341   4.5393   4.5496
     4.6486   4.6552   4.6667   4.6693   4.6945   4.6990   4.6992   4.7113
    11.7226  11.7473  12.3416  12.4953  12.5951  12.8359  12.8788  12.9721
    13.6048  13.6986  13.7509  13.7522  13.8929  14.1679  14.5760  14.6653
    14.7170  14.8307  14.9359  14.9665  15.3689  15.6888  15.9051  15.9463
    16.8547  17.0782  17.7634  17.8870  18.4687  18.5394  18.7524  18.9946
    19.1687  19.4101  19.5993  19.6037  20.2049  20.5221  20.5577  20.9924
    21.2967  21.3250  21.5430  21.8192  21.9701  22.1028  22.1679  22.5866
    23.2747  23.6763  23.7568  23.8652  23.9503  24.2229  24.8222  24.8932
    25.3306  25.6525  25.6688  26.0237  26.2312  26.7139  26.8377  26.8791
    27.2964  27.6013  27.6620  27.8017  28.1406  28.4199  28.5553  28.6236
    28.6311  28.9224  29.0904  29.3578  29.7039  30.1574  30.3208  30.4150
    30.4419  30.4822  30.9046  31.0337  31.2564  31.4633  31.8595  32.2584
    32.3050  32.6767  32.7346  33.0921  33.2080  33.3748  33.7675  33.9879
    34.1937  34.3159  34.4413  34.9193  34.9741  35.2684  35.2799  35.4279
    35.6766  35.9744  36.0765  36.2002  36.3041  36.3754  36.5896  36.7970
    36.9410  37.1767  37.1894  37.3897  37.5378  37.7361  37.8995  38.0129
    38.3855  38.5218  38.7176  38.9038  39.4105  39.4869  39.5663  39.7446
    39.8824  39.8894

          k = 0.0000 0.2000-0.0870 ( 13435 PWs)   bands (ev):

   -92.7610 -92.7610 -41.1094 -41.0984 -19.3735 -19.3182 -18.1380 -18.1342
   -17.8333 -17.7769 -17.6521 -17.4424 -17.3427 -17.1246 -17.1202 -16.9080
   -16.7763 -16.5222 -15.6816 -15.6574 -15.6506 -15.0264 -14.8951 -14.7589
    -3.6333  -3.6082  -3.5119  -3.4866  -3.4763  -3.4430  -0.8359  -0.7242
    -0.3438  -0.1452   0.0563   0.1647   0.2519   0.3023   0.6389   0.7483
     0.8730   0.9606   1.1642   1.1717   1.3477   1.3992   1.4384   1.5574
     1.6584   1.7813   1.9173   2.0035   2.0042   2.0407   2.1862   2.1994
     2.2479   2.2828   2.3393   2.5068   2.5235   2.5594   2.5927   2.6299
     2.6416   2.7348   4.4864   4.4995   4.5057   4.5266   4.5420   4.6052
     4.6387   4.6432   4.6577   4.6802   4.6839   4.6940   4.7113   4.7265
    10.6784  11.6210  11.7915  12.4350  12.5088  12.7043  12.9534  13.1904
    13.4494  13.5594  13.9114  13.9522  14.3033  14.3099  14.5152  14.8050
    14.8249  14.8602  15.0075  15.3014  15.4568  15.6768  16.1781  16.2700
    16.6453  16.9061  17.8693  18.1086  18.3247  18.5933  18.7390  19.0433
    19.2550  19.5203  19.6038  19.7915  19.8854  20.3553  20.6276  20.9345
    21.0184  21.3737  21.5847  21.7099  21.8920  21.9234  22.2987  22.3191
    23.0458  23.6979  23.9279  23.9485  24.2390  24.2515  24.8246  24.9357
    25.1243  25.3398  25.7421  25.9623  26.3989  26.4917  26.6075  26.9062
    27.3517  27.4908  27.7429  27.8312  28.0877  28.2636  28.6165  28.8263
    28.9566  29.0063  29.1352  29.7183  29.8272  29.9131  30.2966  30.5918
    30.6112  30.8149  30.9964  31.0843  31.2750  31.4152  31.7684  31.8911
    32.1607  32.3253  32.3987  32.8454  32.9259  33.2955  33.5760  33.6691
    33.8037  33.9907  34.2416  34.7005  34.8311  34.9658  35.2596  35.4184
    35.5714  35.8844  35.9488  36.2893  36.3833  36.6077  36.6828  36.8443
    37.2100  37.2312  37.5571  37.7092  37.9615  38.1644  38.2283  38.4530
    38.5051  38.5668  38.9808  39.1140  39.4103  39.4196  39.5358  39.5887
    39.7612  40.2527

          k = 0.0000 0.2000-0.3351 ( 13414 PWs)   bands (ev):

   -92.7610 -92.7610 -41.1094 -41.0984 -19.3702 -19.3239 -18.1228 -18.0697
   -17.9274 -17.8045 -17.6901 -17.3949 -17.3203 -17.0979 -17.0961 -16.9134
   -16.7840 -16.5222 -15.7419 -15.6671 -15.6395 -14.9930 -14.8981 -14.7545
    -3.6475  -3.6182  -3.5103  -3.4738  -3.4579  -3.4445  -0.9003  -0.7790
    -0.2942  -0.1515   0.0540   0.1281   0.2782   0.2838   0.7447   0.8936
     0.9739   1.0776   1.1504   1.2135   1.2487   1.2964   1.3082   1.6083
     1.6549   1.7932   1.9151   1.9592   1.9858   2.0324   2.0956   2.1254
     2.2141   2.3462   2.4043   2.4194   2.4911   2.5566   2.6003   2.6665
     2.6787   2.7484   4.4927   4.4986   4.5013   4.5295   4.5448   4.6031
     4.6358   4.6441   4.6496   4.6772   4.6796   4.6966   4.7206   4.7225
    11.2750  11.6248  11.7678  12.3536  12.5006  12.5856  12.8354  13.0428
    13.3113  13.7327  13.8452  13.9281  14.2047  14.3448  14.4652  14.4928
    14.7946  14.8543  14.9869  15.2727  15.5511  15.7324  16.0089  16.8422
    16.9126  17.2978  17.8707  17.9592  18.4117  18.5239  18.7118  18.9236
    18.9521  19.1489  19.3654  19.7468  20.1495  20.1781  20.4151  20.9627
    21.1467  21.3323  21.3634  21.8324  21.8502  22.1783  22.3330  22.6555
    23.1012  23.4053  23.6672  23.7393  24.3286  24.3449  24.8772  25.2307
    25.3687  25.4085  25.6970  25.8828  26.3353  26.9177  26.9672  26.9786
    27.2350  27.4334  27.5456  27.7982  27.9124  28.0575  28.3236  28.5767
    28.6178  29.0828  29.2599  29.5098  29.7346  29.8409  30.1903  30.8430
    30.8648  31.0630  31.1336  31.2982  31.5305  31.7458  31.7508  32.2034
    32.3705  32.4499  32.8607  32.9120  33.3690  33.4942  33.5996  33.8214
    33.9087  34.0325  34.3020  34.4461  34.6545  34.8602  35.1454  35.6073
    35.6309  35.8540  35.9277  35.9848  36.0445  36.2587  36.5533  36.6817
    36.9527  37.0050  37.5665  37.5834  37.8291  37.8751  37.8784  38.0635
    38.1545  38.4884  39.0189  39.1794  39.3265  39.3801  39.4651  39.9005
    39.9792  40.2500

          k = 0.0000 0.2000 0.4090 ( 13430 PWs)   bands (ev):

   -92.7610 -92.7610 -41.1094 -41.0984 -19.3659 -19.3289 -18.1283 -18.0448
   -17.9606 -17.7951 -17.6740 -17.4430 -17.2833 -17.1107 -17.0690 -16.9335
   -16.7721 -16.5221 -15.7571 -15.6615 -15.6429 -14.9852 -14.8975 -14.7561
    -3.6583  -3.6235  -3.4947  -3.4705  -3.4615  -3.4337  -0.9026  -0.7825
    -0.2776  -0.1360   0.0512   0.1305   0.2475   0.3153   0.8351   0.8446
     0.9558   1.0302   1.0665   1.2050   1.2091   1.2444   1.4762   1.5860
     1.6543   1.6899   1.8660   1.9306   1.9765   2.0873   2.0893   2.2384
     2.2422   2.3697   2.4016   2.4525   2.4678   2.5698   2.5749   2.6367
     2.6763   2.7766   4.4924   4.4986   4.5015   4.5293   4.5437   4.6030
     4.6389   4.6440   4.6459   4.6759   4.6821   4.6946   4.7226   4.7305
    11.3827  11.6603  11.8184  12.3876  12.5163  12.5450  12.7366  12.9498
    13.5130  13.6980  13.8058  13.9481  14.2293  14.2640  14.4188  14.4272
    14.7328  14.9876  15.0310  15.3413  15.5660  15.6513  15.7389  16.7907
    17.2667  17.4434  17.5752  18.0160  18.2508  18.2963  18.5188  18.7466
    18.9386  19.1780  19.5323  19.7595  20.1189  20.3232  20.7475  20.9021
    21.1855  21.3947  21.7166  21.9820  22.0541  22.1720  22.4739  22.6227
    23.1033  23.1453  23.6687  23.7346  24.0068  24.5589  24.6994  24.9808
    25.1277  25.3590  25.7123  26.0076  26.1386  26.8297  26.9188  27.0978
    27.1913  27.5413  27.7295  27.7306  28.0285  28.0498  28.2676  28.7598
    29.0002  29.0666  29.1390  29.4323  29.5901  29.7780  30.0538  30.2280
    30.5140  30.6964  31.1155  31.3153  31.4777  31.8642  32.0621  32.1323
    32.4494  32.6365  32.7138  32.9854  33.4013  33.5793  33.7056  34.1264
    34.1610  34.3966  34.4107  34.7685  34.9489  35.1856  35.3234  35.3500
    35.5997  35.7668  35.9995  36.1355  36.2315  36.2907  36.5065  36.8834
    36.9196  37.1977  37.3597  37.4430  37.6012  37.7252  37.9863  38.1033
    38.2945  38.6342  38.7934  38.8317  39.1452  39.5042  39.6501  39.8453
    40.0241  40.0285

          k = 0.0000 0.2000 0.1610 ( 13465 PWs)   bands (ev):

   -92.7610 -92.7610 -41.1094 -41.0984 -19.3700 -19.3224 -18.1429 -18.1254
   -17.8560 -17.7590 -17.6351 -17.4834 -17.3252 -17.1407 -17.0791 -16.9280
   -16.7681 -16.5221 -15.6936 -15.6575 -15.6518 -15.0177 -14.8943 -14.7606
    -3.6460  -3.6145  -3.5059  -3.4725  -3.4608  -3.4496  -0.8401  -0.7274
    -0.3266  -0.1279   0.0516   0.1808   0.2404   0.3206   0.6751   0.6784
     0.8477   0.9181   1.1317   1.2644   1.3472   1.3746   1.4147   1.5203
     1.6488   1.7324   1.8965   1.9855   2.0277   2.0480   2.1498   2.2588
     2.2957   2.3679   2.4162   2.4293   2.4868   2.5387   2.5871   2.6352
     2.6436   2.7607   4.4861   4.4995   4.5059   4.5265   4.5411   4.6052
     4.6418   4.6437   4.6522   4.6750   4.6899   4.6922   4.7209   4.7278
    10.7684  11.6532  11.7271  12.4720  12.4926  12.7388  12.8864  13.3793
    13.5716  13.6230  13.7912  13.9924  14.1809  14.2560  14.3669  14.5691
    14.9208  15.0064  15.0794  15.3773  15.5349  15.6051  15.6159  16.2363
    17.0650  17.1503  17.7877  18.0891  18.1109  18.4367  18.6621  18.7437
    18.9897  19.5971  19.8300  19.8841  20.0849  20.4076  20.5281  21.0950
    21.2448  21.2959  21.6146  21.8075  21.8447  22.1949  22.4213  22.5661
    23.4574  23.6321  23.6796  23.8822  24.1630  24.3840  24.4806  24.5483
    24.9715  25.1450  25.6989  25.8889  26.3838  26.4967  26.5536  26.8283
    27.6517  27.6694  27.8670  27.8670  28.0137  28.1255  28.3965  28.7216
    28.9180  29.0614  29.4317  29.5675  29.6101  30.0088  30.3267  30.3711
    30.5146  30.8772  30.8866  30.9455  31.2099  31.4160  31.7740  31.9039
    32.1521  32.6651  32.7413  32.7859  33.0614  33.2527  33.5719  33.6655
    33.9515  34.2813  34.4792  34.6687  34.7287  34.9693  35.3910  35.5740
    35.7481  35.8447  35.9037  36.2231  36.3490  36.5438  36.7056  36.9853
    37.1313  37.3704  37.4570  37.5592  38.0308  38.1495  38.4705  38.7520
    38.8513  38.9163  38.9998  39.0205  39.1475  39.3185  39.5966  39.8261
    39.9567  40.2356

          k = 0.2227 0.2000-0.0870 ( 13441 PWs)   bands (ev):

   -92.7610 -92.7610 -41.1084 -41.0995 -19.3668 -19.3220 -18.1743 -18.0759
   -17.8439 -17.7509 -17.7191 -17.4480 -17.2792 -17.2182 -17.0327 -16.9202
   -16.7709 -16.5825 -15.7079 -15.6597 -15.5442 -14.9817 -14.9469 -14.7900
    -3.6252  -3.6167  -3.5094  -3.4707  -3.4451  -3.4331  -0.8290  -0.7375
    -0.3284  -0.1927   0.0184   0.2085   0.2271   0.2902   0.6648   0.8196
     0.9337   1.0482   1.1591   1.2381   1.3147   1.3782   1.4267   1.5285
     1.5752   1.8369   1.8979   1.9450   1.9906   2.0445   2.1406   2.1990
     2.2321   2.2827   2.3727   2.4443   2.4664   2.5551   2.5604   2.6129
     2.6450   2.7189   4.4792   4.4938   4.5082   4.5268   4.5425   4.5818
     4.6453   4.6575   4.6628   4.6795   4.6831   4.6933   4.7019   4.7244
    10.9552  11.6637  11.8537  12.5360  12.5714  12.7634  12.9909  13.2277
    13.5037  13.5964  13.8060  13.9333  14.0157  14.2424  14.4062  14.6968
    14.8116  15.0200  15.0438  15.1928  15.2894  15.7095  16.0458  16.3321
    16.6067  17.0160  17.9175  17.9520  18.3827  18.5181  18.7177  18.9664
    19.1349  19.5750  19.6257  19.9851  20.2047  20.3649  20.4989  20.9251
    21.0489  21.1962  21.6162  21.6492  21.9407  22.0252  22.5450  22.7767
    23.1302  23.4175  23.7502  23.9948  24.1414  24.4179  24.8382  24.9950
    25.2099  25.5378  25.6748  26.1645  26.2795  26.5870  26.7285  26.8465
    27.1879  27.4684  27.5266  27.6960  27.9150  28.0788  28.3998  28.4149
    28.9163  29.0284  29.3881  29.5936  29.9209  29.9923  30.1027  30.2572
    30.5907  30.7019  30.8765  31.1312  31.4490  31.7632  31.8273  32.0748
    32.1492  32.3306  32.5919  32.7400  33.1748  33.4398  33.6018  33.7167
    33.8571  34.0734  34.4048  34.6545  34.6831  34.9931  35.1652  35.3237
    35.3802  35.7066  35.7689  36.0829  36.2503  36.5313  36.6498  36.7891
    37.0800  37.2240  37.7218  37.8492  38.0314  38.1401  38.1953  38.5398
    38.6135  38.6729  39.0636  39.1219  39.3546  39.4386  39.5386  39.8247
    40.0603  40.1984

          k = 0.2227 0.2000-0.3351 ( 13424 PWs)   bands (ev):

   -92.7610 -92.7610 -41.1084 -41.0995 -19.3643 -19.3268 -18.1885 -18.0023
   -17.8746 -17.8072 -17.7325 -17.4116 -17.2349 -17.2111 -17.0764 -16.9198
   -16.7700 -16.5805 -15.7119 -15.6736 -15.5400 -14.9645 -14.9516 -14.7927
    -3.6333  -3.6096  -3.5040  -3.4695  -3.4481  -3.4282  -0.8568  -0.7562
    -0.2743  -0.2037   0.0193   0.1731   0.2253   0.2692   0.7029   0.9441
     1.0549   1.0751   1.1112   1.1542   1.2799   1.3268   1.3733   1.5748
     1.5906   1.7709   1.8712   1.9490   1.9955   2.0208   2.0851   2.1431
     2.2482   2.3519   2.3825   2.4109   2.4915   2.5337   2.5823   2.6349
     2.6611   2.7384   4.4839   4.4909   4.5075   4.5295   4.5442   4.5797
     4.6435   4.6500   4.6609   4.6782   4.6807   4.6963   4.7107   4.7200
    11.4679  11.6677  11.8491  12.4353  12.5710  12.6453  12.9662  13.0585
    13.3703  13.7512  13.7766  13.9129  14.0895  14.2871  14.3854  14.5381
    14.6249  14.8300  14.9143  15.3103  15.4866  15.6728  16.0569  16.4675
    16.7744  17.0382  18.0260  18.0880  18.2074  18.5295  18.8012  18.9155
    19.2769  19.3898  19.5651  19.8685  20.0575  20.3028  20.4600  20.7435
    20.9765  21.4336  21.5146  21.7986  21.8900  21.9917  22.5536  22.8939
    23.0537  23.3525  23.6703  23.7613  24.0561  24.4804  24.8436  25.1678
    25.3679  25.6767  25.8468  25.8961  26.3167  26.5460  26.9124  27.0570
    27.1506  27.3095  27.5624  27.7203  27.8139  28.1647  28.3852  28.5639
    28.9154  28.9900  29.2357  29.7858  29.7920  29.9490  30.2083  30.4024
    30.6341  30.8970  31.0035  31.0218  31.4769  31.8915  32.0854  32.1829
    32.2822  32.4747  32.5874  32.7400  33.0089  33.2086  33.6427  33.9884
    34.0404  34.2370  34.4144  34.6749  34.8027  34.8918  35.0748  35.1784
    35.3907  35.6767  35.7431  35.9851  36.3103  36.3990  36.6371  36.8366
    37.0794  37.3682  37.5805  37.6395  37.8366  37.9785  38.0595  38.2156
    38.4410  38.8150  38.9607  39.0931  39.2246  39.4657  39.6038  39.6412
    39.7877  39.8940

          k = 0.2227 0.2000 0.4090 ( 13425 PWs)   bands (ev):

   -92.7610 -92.7610 -41.1084 -41.0995 -19.3607 -19.3309 -18.1922 -17.9865
   -17.8765 -17.8323 -17.7118 -17.4281 -17.2400 -17.2001 -17.0574 -16.9343
   -16.7652 -16.5825 -15.7131 -15.6761 -15.5414 -14.9598 -14.9501 -14.7960
    -3.6247  -3.6239  -3.4906  -3.4681  -3.4449  -3.4322  -0.8581  -0.7623
    -0.2506  -0.1900  -0.0003   0.1873   0.2483   0.2535   0.7682   0.8326
     1.0048   1.0437   1.0950   1.2326   1.2441   1.3134   1.4343   1.5374
     1.5978   1.7123   1.8501   1.9099   1.9862   2.0548   2.1387   2.2215
     2.2438   2.3482   2.3721   2.4400   2.4806   2.5287   2.5538   2.6363
     2.6614   2.7648   4.4835   4.4911   4.5077   4.5290   4.5433   4.5796
     4.6442   4.6475   4.6625   4.6733   4.6849   4.6950   4.7156   4.7227
    11.5206  11.7021  11.9525  12.4710  12.5125  12.6895  12.8141  13.0047
    13.5692  13.6983  13.7835  13.8738  14.0883  14.2572  14.3605  14.4972
    14.7184  14.8791  14.9634  15.2652  15.4732  15.7262  15.8266  16.5128
    16.8410  17.1178  17.5368  17.9417  18.2433  18.3469  18.7038  19.0456
    19.2897  19.4847  19.6599  19.7317  20.1522  20.3250  20.6216  20.8203
    21.3155  21.5571  21.6655  21.8724  22.0189  22.1035  22.3301  22.7900
    23.0767  23.3481  23.5716  23.7869  23.9941  24.4467  24.8130  24.9277
    25.1401  25.6710  25.8480  26.0185  26.1193  26.4045  26.9208  27.0615
    27.2382  27.5206  27.7142  27.8635  27.9584  28.0697  28.3020  28.4432
    28.9491  29.1232  29.3415  29.5739  29.6295  29.8014  30.0606  30.2907
    30.5094  30.5533  30.8405  31.0613  31.6379  31.6833  31.9767  32.0870
    32.2519  32.3676  32.8367  32.9786  33.3344  33.4262  33.6027  33.8815
    34.1103  34.3387  34.6338  34.8727  34.9510  35.1260  35.2049  35.3898
    35.6330  35.7559  35.9086  36.0435  36.2676  36.3811  36.7929  36.9666
    37.2630  37.3168  37.3894  37.5297  37.7345  37.8903  38.1334  38.2550
    38.4702  38.7822  38.9036  39.0215  39.3012  39.4472  39.5518  39.7489
    39.8476  40.0716

          k = 0.2227 0.2000 0.1610 ( 13434 PWs)   bands (ev):

   -92.7610 -92.7610 -41.1084 -41.0995 -19.3640 -19.3254 -18.1801 -18.0648
   -17.8481 -17.7599 -17.7070 -17.4636 -17.2688 -17.2154 -17.0238 -16.9338
   -16.7628 -16.5850 -15.7090 -15.6636 -15.5445 -14.9775 -14.9452 -14.7930
    -3.6329  -3.6121  -3.4984  -3.4669  -3.4552  -3.4263  -0.8311  -0.7437
    -0.3012  -0.1878   0.0138   0.2130   0.2379   0.2872   0.7200   0.7786
     0.8809   0.9893   1.1652   1.1883   1.3425   1.3744   1.4774   1.5120
     1.5800   1.8002   1.8709   1.9376   1.9735   2.0309   2.1616   2.2367
     2.2852   2.3513   2.3837   2.3967   2.4632   2.5034   2.5523   2.6381
     2.6470   2.7397   4.4789   4.4939   4.5083   4.5268   4.5415   4.5815
     4.6473   4.6542   4.6609   4.6749   4.6895   4.6916   4.7095   4.7250
    11.0337  11.6929  11.8115  12.5296  12.5794  12.7953  12.9286  13.3954
    13.5223  13.6960  13.8056  13.8987  14.0108  14.0905  14.3808  14.7494
    14.8180  14.8868  15.0968  15.2125  15.3880  15.6946  15.9580  16.0175
    16.6938  17.3157  17.6987  17.9815  18.0621  18.3872  18.5956  18.8533
    19.2963  19.7146  19.7353  19.9039  20.2277  20.2782  20.6132  20.9869
    21.1914  21.3124  21.7171  21.8727  22.1049  22.2580  22.4483  22.5994
    23.3994  23.4663  23.7578  23.8031  24.0914  24.3538  24.7620  24.9604
    25.0106  25.4162  25.4910  25.9767  26.0617  26.5136  26.8715  27.0165
    27.1420  27.4225  27.7022  27.8785  27.9711  28.1523  28.4279  28.5001
    28.7695  28.9437  29.0491  29.2745  29.6951  30.0497  30.1207  30.3544
    30.7123  30.9666  31.0424  31.1737  31.2189  31.4558  31.8058  32.0873
    32.2550  32.5172  32.6699  32.9337  33.1877  33.4812  33.5426  33.6074
    33.7126  34.1209  34.4954  34.5579  34.8537  35.1737  35.2039  35.2654
    35.5132  35.7438  35.7750  35.9897  36.3267  36.6075  36.9697  37.0472
    37.2623  37.4624  37.6089  37.8502  38.0621  38.2696  38.3024  38.6130
    38.7540  38.8701  39.0961  39.2384  39.3157  39.4579  39.6501  39.8829
    39.9426  40.1553

          k = 0.4454 0.2000-0.0870 ( 13429 PWs)   bands (ev):

   -92.7610 -92.7610 -41.1056 -41.1022 -19.3506 -19.3335 -18.1626 -18.0523
   -17.9213 -17.7510 -17.6331 -17.5304 -17.2808 -17.1775 -16.9912 -16.9578
   -16.7422 -16.6785 -15.7249 -15.6726 -15.3207 -15.1027 -14.9058 -14.8498
    -3.6276  -3.6127  -3.4912  -3.4718  -3.4116  -3.3880  -0.8182  -0.7869
    -0.2785  -0.2350   0.0218   0.1128   0.2582   0.2825   0.8091   0.8737
     1.0897   1.1424   1.1623   1.2432   1.3059   1.3642   1.4202   1.4470
     1.5294   1.6743   1.9278   1.9591   1.9926   2.0225   2.1378   2.1485
     2.2058   2.2891   2.3089   2.3297   2.4408   2.4747   2.5808   2.6113
     2.6498   2.6904   4.4685   4.4738   4.5261   4.5342   4.5395   4.5531
     4.6599   4.6624   4.6731   4.6787   4.6804   4.6849   4.6995   4.7147
    11.5377  11.7157  12.1038  12.6605  12.7259  12.8301  13.0604  13.1308
    13.3034  13.3955  13.7011  13.8451  13.8757  14.1681  14.3573  14.7427
    14.7763  14.9240  15.0088  15.0645  15.4294  15.5578  16.0774  16.1265
    16.7842  17.0389  17.6980  17.7671  18.3683  18.5147  18.8839  18.9193
    19.2633  19.5377  19.8027  19.9817  20.0362  20.3819  20.5765  20.7591
    20.8707  21.3081  21.5321  21.8229  22.1386  22.2547  23.1570  23.2834
    23.3325  23.5706  23.6388  23.9530  24.2629  24.3578  24.8259  25.1953
    25.2359  25.6388  25.7986  25.9736  26.2243  26.3078  26.3944  26.7238
    26.7437  27.0961  27.1716  27.6451  27.7108  28.0188  28.1180  28.6228
    28.9446  29.1365  29.1554  29.2840  29.7798  29.8794  30.2645  30.4417
    30.7849  30.9592  31.0746  31.3114  31.3525  31.5535  31.6589  32.0324
    32.1095  32.5088  32.6491  32.8641  33.0962  33.5627  33.7500  33.8578
    34.0127  34.0882  34.3862  34.5693  34.7245  35.0104  35.1299  35.4488
    35.4999  35.7386  35.8591  36.1284  36.1748  36.4510  36.6323  36.7809
    37.0123  37.2465  37.2514  37.6451  37.8094  37.9358  38.2263  38.2765
    38.6732  38.8253  38.9212  39.2387  39.4951  39.5709  39.6357  39.8418
    40.0916  40.3092

          k = 0.4454 0.2000-0.3351 ( 13449 PWs)   bands (ev):

   -92.7610 -92.7610 -41.1056 -41.1022 -19.3502 -19.3360 -18.1908 -18.0899
   -17.8204 -17.6935 -17.6434 -17.5222 -17.3331 -17.2456 -17.0080 -16.9444
   -16.7360 -16.6740 -15.6921 -15.6535 -15.3217 -15.1049 -14.9158 -14.8646
    -3.6178  -3.5943  -3.4871  -3.4723  -3.4254  -3.3981  -0.7782  -0.7408
    -0.2616  -0.2130   0.0054   0.0978   0.2184   0.2365   0.7629   0.9225
     1.0021   1.0284   1.1339   1.2551   1.3126   1.3619   1.4227   1.4848
     1.5787   1.6532   1.8280   1.9162   1.9833   2.0534   2.0881   2.2026
     2.2594   2.3214   2.3743   2.4035   2.4336   2.4921   2.5401   2.5921
     2.6909   2.7231   4.4708   4.4737   4.5258   4.5351   4.5396   4.5512
     4.6546   4.6585   4.6687   4.6750   4.6864   4.6926   4.7005   4.7131
    11.7169  11.7363  12.2200  12.5230  12.6904  12.7735  13.0646  13.1545
    13.4504  13.5681  13.7278  13.8042  13.9418  14.1098  14.4143  14.5668
    14.6000  14.7888  14.9520  15.0280  15.4465  15.6397  15.9557  16.1589
    16.5061  16.5375  18.1310  18.2341  18.4789  18.7236  18.8345  19.0782
    19.3338  19.3959  19.6465  19.7141  20.1153  20.3495  20.6099  20.9436
    21.0819  21.3524  21.5914  21.7820  21.8115  22.1207  22.6160  22.8322
    23.1533  23.3718  23.7670  24.1832  24.2346  24.5627  24.7188  24.9665
    25.2429  25.8147  25.9036  26.0593  26.1974  26.5654  26.6486  26.7252
    26.9438  27.1895  27.4889  27.6809  27.7981  27.9319  28.1879  28.6367
    28.8086  28.9913  29.3368  29.7468  29.9374  30.1021  30.2380  30.3559
    30.4489  30.6031  31.0225  31.3103  31.5196  31.6639  31.7742  32.1754
    32.2317  32.4565  32.6724  32.9640  33.1089  33.3368  33.7087  33.8030
    34.0238  34.0674  34.3007  34.5037  34.6207  34.9566  35.2327  35.4405
    35.6344  35.7232  35.9314  36.0551  36.4211  36.5276  36.5676  36.9049
    37.0210  37.1938  37.2503  37.4592  37.7379  37.7889  38.0939  38.1843
    38.3507  38.5333  38.8849  39.0958  39.2010  39.5006  39.6810  39.7702
    39.8280  40.0019

          k = 0.4454 0.2000 0.4090 ( 13436 PWs)   bands (ev):

   -92.7610 -92.7610 -41.1056 -41.1022 -19.3489 -19.3376 -18.1941 -18.0920
   -17.7962 -17.6920 -17.6464 -17.5448 -17.3402 -17.2384 -16.9982 -16.9461
   -16.7379 -16.6770 -15.6857 -15.6546 -15.3216 -15.1033 -14.9164 -14.8691
    -3.6058  -3.5865  -3.4840  -3.4768  -3.4307  -3.4051  -0.7836  -0.7474
    -0.2417  -0.2021   0.0023   0.1137   0.2146   0.2506   0.7709   0.8868
     0.9122   1.0628   1.1490   1.2338   1.2843   1.3297   1.4390   1.4724
     1.6340   1.7010   1.7904   1.8044   2.0807   2.1016   2.1333   2.2152
     2.2591   2.3005   2.3205   2.3515   2.4663   2.4852   2.5344   2.6005
     2.7023   2.7416   4.4705   4.4737   4.5257   4.5340   4.5397   4.5515
     4.6484   4.6594   4.6664   4.6737   4.6924   4.6952   4.7002   4.7136
    11.7078  11.7546  12.3353  12.5286  12.6970  12.8263  12.9664  13.1592
    13.4926  13.5698  13.7123  13.7676  13.9100  14.1565  14.4636  14.5328
    14.6616  14.9159  14.9723  15.1817  15.3776  15.6139  15.8413  15.8939
    16.4976  16.7371  17.6535  17.8109  18.4817  18.6010  18.7337  19.2676
    19.3466  19.5445  19.6287  19.7954  20.2326  20.5898  20.6906  20.8970
    21.3575  21.5217  21.7052  21.9611  22.0080  22.0849  22.4169  22.4514
    23.2344  23.5415  23.8089  23.8654  24.2576  24.4199  24.7350  25.0893
    25.2396  25.7525  25.7610  25.9831  26.1047  26.2499  26.3872  26.9252
    27.2985  27.3869  27.4130  27.7707  27.9078  28.2896  28.5063  28.5762
    28.8353  28.9177  29.0297  29.4548  29.7485  29.8989  30.0346  30.1026
    30.3390  30.5452  30.9469  31.1983  31.4090  31.6028  31.7712  32.2064
    32.3477  32.6481  32.7139  32.9526  33.2511  33.2975  33.4832  33.9648
    34.0655  34.2612  34.4614  34.8201  34.9990  35.0540  35.2399  35.4635
    35.6396  35.9188  36.0016  36.2468  36.4552  36.4944  36.7064  37.0510
    37.1852  37.3608  37.4183  37.7004  37.7682  37.9297  38.1323  38.2884
    38.4483  38.5731  38.7211  38.8988  39.1772  39.4567  39.6176  39.8231
    39.9175  40.0455

          k = 0.4454 0.2000 0.1610 ( 13416 PWs)   bands (ev):

   -92.7610 -92.7610 -41.1056 -41.1022 -19.3496 -19.3348 -18.1674 -18.0551
   -17.9084 -17.7295 -17.6532 -17.5416 -17.2827 -17.1742 -16.9900 -16.9542
   -16.7404 -16.6838 -15.7207 -15.6718 -15.3203 -15.1014 -14.9070 -14.8536
    -3.6205  -3.6011  -3.4875  -3.4777  -3.4184  -3.3917  -0.8227  -0.7916
    -0.2500  -0.2386   0.0207   0.1264   0.2571   0.2897   0.8232   0.9273
     0.9893   1.0376   1.1273   1.2414   1.3370   1.3865   1.3961   1.4634
     1.5873   1.6993   1.8573   1.8957   2.0208   2.0414   2.1867   2.2263
     2.2453   2.2682   2.3062   2.3367   2.3774   2.4230   2.5732   2.6240
     2.6753   2.7080   4.4683   4.4738   4.5256   4.5349   4.5382   4.5533
     4.6539   4.6617   4.6683   4.6740   4.6892   4.6931   4.6985   4.7148
    11.5684  11.7341  12.1246  12.6178  12.7176  12.9088  12.9669  13.1508
    13.3931  13.5331  13.6660  13.7074  14.0198  14.1888  14.4275  14.5255
    14.7556  14.9359  15.2048  15.2241  15.4125  15.5751  15.7681  16.0928
    16.6396  17.1404  17.5582  17.6990  18.1839  18.3379  18.5412  18.9734
    19.4280  19.6393  19.9017  19.9510  20.0710  20.3731  20.6247  20.8282
    21.2720  21.4241  21.6767  21.8410  22.3726  22.5196  22.6940  22.9531
    23.4297  23.6633  23.7116  23.9430  24.1797  24.4903  24.9200  25.1637
    25.3282  25.5628  25.7161  25.7814  25.9711  26.0214  26.1499  26.6555
    27.0443  27.2156  27.4574  27.5863  27.7915  28.1351  28.2007  28.4168
    28.6677  29.0417  29.2096  29.2605  29.6900  29.9373  30.0905  30.3114
    30.6445  30.8449  31.1012  31.3126  31.5106  31.5937  31.7150  31.9842
    32.2237  32.7257  32.8007  32.8920  33.1948  33.4202  33.5541  33.8930
    34.1085  34.1661  34.3251  34.5894  34.6193  34.8320  35.1594  35.3314
    35.4651  35.7166  36.0441  36.2637  36.6124  36.7308  36.7837  37.0857
    37.1782  37.4404  37.5669  37.6994  37.9104  38.0099  38.2811  38.4176
    38.6567  38.8195  38.9215  39.1434  39.3624  39.5654  39.7540  39.8109
    40.0671  40.2123

          k = 0.0000 0.4000-0.1741 ( 13436 PWs)   bands (ev):

   -92.7610 -92.7610 -41.1094 -41.0984 -19.3751 -19.3189 -18.1252 -18.0876
   -17.9265 -17.7767 -17.6841 -17.5067 -17.2835 -17.0984 -17.0017 -16.8930
   -16.8194 -16.5249 -15.6950 -15.6794 -15.6664 -15.0095 -14.9079 -14.7540
    -3.6263  -3.6097  -3.5130  -3.4902  -3.4809  -3.4399  -0.8431  -0.7103
    -0.3056  -0.1839   0.0698   0.0764   0.1732   0.2759   0.7383   0.7435
     0.9259   1.0516   1.1872   1.2647   1.2817   1.4373   1.5796   1.5857
     1.6049   1.7495   1.8419   1.9802   2.0045   2.0195   2.0726   2.1238
     2.2517   2.3158   2.3876   2.4277   2.5005   2.5406   2.6053   2.6631
     2.6773   2.7251   4.4911   4.4974   4.5024   4.5288   4.5454   4.6047
     4.6380   4.6468   4.6566   4.6770   4.6858   4.6959   4.7117   4.7231
    11.3769  11.6144  11.8675  12.3249  12.6274  12.6485  12.6947  13.0826
    13.3230  13.7466  13.8159  13.8709  13.9589  14.3264  14.3662  14.4775
    14.5256  14.6142  14.9501  15.3342  15.4132  15.6616  16.2012  16.5495
    16.8789  17.0489  18.0790  18.2327  18.4140  18.6719  18.8941  19.2476
    19.2720  19.4422  19.8390  20.2071  20.3395  20.5142  20.6781  20.8040
    20.8815  21.2504  21.4610  21.5502  21.7570  21.9595  22.0968  22.1706
    23.0371  23.5545  23.6005  23.9453  24.0887  24.5241  24.8529  25.0229
    25.2086  25.3150  25.6741  25.9322  26.1823  26.3216  26.6846  26.8594
    27.0197  27.0940  27.6147  27.7422  27.8936  28.0367  28.3612  28.4636
    29.1842  29.2613  29.5281  29.6660  29.7136  30.1743  30.2271  30.6354
    30.7868  30.7917  31.0155  31.3007  31.6907  31.9828  32.1797  32.5664
    32.7426  32.8182  32.8810  32.9295  33.1521  33.2576  33.5900  33.7252
    33.9470  34.0731  34.4299  34.6114  34.6700  34.8360  34.9458  35.0089
    35.3814  35.5723  35.6289  35.7470  35.9528  36.0246  36.3676  36.4149
    36.9131  37.0133  37.1329  37.4367  37.5282  37.8230  37.8534  38.2824
    38.3024  38.7096  39.0078  39.0429  39.4277  39.6170  39.8163  39.8908
    40.0260  40.1251

          k = 0.0000 0.4000-0.4221 ( 13421 PWs)   bands (ev):

   -92.7610 -92.7610 -41.1094 -41.0984 -19.3717 -19.3233 -18.1260 -18.0520
   -17.9535 -17.8234 -17.6799 -17.4209 -17.3452 -17.1037 -16.9772 -16.9031
   -16.8044 -16.5248 -15.7543 -15.6642 -15.6473 -14.9979 -14.9069 -14.7543
    -3.6396  -3.6119  -3.5176  -3.4761  -3.4617  -3.4433  -0.8675  -0.7224
    -0.2859  -0.1714   0.0587   0.0606   0.1648   0.2760   0.8350   0.8474
     0.9451   1.0383   1.1144   1.2061   1.3083   1.4366   1.5153   1.5498
     1.6306   1.6778   1.7701   1.8885   2.0224   2.0543   2.0878   2.1896
     2.3196   2.3472   2.3494   2.4279   2.4971   2.5158   2.6358   2.6617
     2.6705   2.7569   4.4930   4.4972   4.5011   4.5293   4.5455   4.6042
     4.6393   4.6462   4.6504   4.6786   4.6855   4.6924   4.7215   4.7241
    11.5090  11.6652  12.2031  12.2891  12.5325  12.6213  12.7555  12.8522
    13.1501  13.6683  13.7779  13.9749  14.1805  14.2630  14.3143  14.3862
    14.4245  14.6374  14.9060  15.3347  15.3974  15.7756  15.8705  16.6380
    17.0708  17.4605  17.7133  18.2808  18.5342  18.8045  18.9320  19.0189
    19.1349  19.2706  19.5317  19.9995  20.2085  20.3000  20.8750  20.9603
    21.1481  21.4336  21.6339  21.8295  21.9996  22.0897  22.2326  22.5003
    22.8651  23.2449  23.3759  23.7786  24.2120  24.4607  24.7364  24.7645
    25.0627  25.2293  25.5131  25.9635  26.3620  26.3627  26.5961  26.8253
    27.2159  27.5222  27.5520  27.6890  28.0271  28.0599  28.2274  28.3252
    28.8247  29.0799  29.3004  29.4415  29.6807  30.3457  30.5786  30.6232
    30.8213  30.8747  31.3238  31.5500  31.6906  31.7085  31.8714  32.2745
    32.4905  32.7394  32.9595  33.3537  33.3551  33.5497  33.8223  34.1273
    34.1917  34.4225  34.4778  34.5853  34.7720  34.7961  35.1604  35.1670
    35.3028  35.3753  35.5304  35.5312  36.1431  36.1912  36.6152  36.6958
    36.7531  37.1577  37.3091  37.3183  37.4273  37.5757  37.6755  37.9011
    38.2092  38.7127  39.0750  39.1072  39.2258  39.2883  39.3445  39.4727
    39.8661  40.0569

          k = 0.0000 0.4000 0.3220 ( 13434 PWs)   bands (ev):

   -92.7610 -92.7610 -41.1094 -41.0984 -19.3673 -19.3276 -18.1391 -18.0667
   -17.9607 -17.7511 -17.6414 -17.5454 -17.2798 -17.1368 -16.9645 -16.8930
   -16.8145 -16.5247 -15.7287 -15.6795 -15.6525 -14.9958 -14.9067 -14.7585
    -3.6500  -3.6149  -3.4940  -3.4837  -3.4630  -3.4330  -0.8620  -0.6924
    -0.2616  -0.1443   0.0056   0.0520   0.1667   0.3100   0.7981   0.8489
     0.8499   1.0821   1.0909   1.1810   1.2775   1.3698   1.5209   1.5237
     1.5821   1.6890   1.7739   1.8551   2.0080   2.0489   2.1576   2.3471
     2.3696   2.3760   2.4095   2.4175   2.4972   2.5096   2.5354   2.6446
     2.6814   2.7827   4.4902   4.4976   4.5032   4.5279   4.5432   4.6049
     4.6431   4.6473   4.6477   4.6784   4.6851   4.6938   4.7284   4.7291
    11.4210  11.6613  11.9247  12.4965  12.5401  12.6752  12.8681  13.0763
    13.2301  13.6678  13.8821  14.0260  14.0656  14.1963  14.2872  14.4450
    14.5463  14.6277  14.7528  15.2529  15.4062  15.4742  15.7508  16.3873
    17.4243  17.4427  17.6350  18.2017  18.2380  18.4699  18.9339  18.9957
    19.2750  19.6447  19.8352  20.0342  20.1773  20.5901  20.7507  20.9787
    21.2750  21.4794  21.7157  21.8189  21.9344  22.1434  22.4959  22.8380
    23.0935  23.2276  23.5038  23.7246  24.1637  24.2841  24.5115  24.7255
    24.8109  24.8614  25.5956  25.8278  26.0442  26.2976  26.8016  26.8037
    27.0177  27.0625  27.4335  27.6310  27.7195  28.1290  28.3485  28.4549
    28.8723  29.3293  29.3910  29.5011  29.8842  30.2550  30.2734  30.5514
    30.7641  30.9940  31.2095  31.5284  31.5896  31.6620  31.8432  32.3220
    32.6160  33.0092  33.0615  33.2572  33.2904  33.6589  33.8240  34.1687
    34.2886  34.3781  34.6444  34.6739  34.8611  35.0967  35.2245  35.3596
    35.3730  35.5062  35.7103  35.7431  36.0295  36.2134  36.4176  36.5651
    36.7353  36.8623  36.9542  37.3676  37.7299  37.7717  38.2192  38.2813
    38.3768  38.7490  38.9296  39.0177  39.1234  39.3319  39.5570  39.6344
    39.9548  40.0408

          k = 0.0000 0.4000 0.0739 ( 13423 PWs)   bands (ev):

   -92.7610 -92.7610 -41.1094 -41.0984 -19.3715 -19.3224 -18.1384 -18.1015
   -17.8939 -17.7955 -17.6460 -17.4688 -17.3595 -17.1312 -16.9639 -16.8727
   -16.8322 -16.5248 -15.7242 -15.6571 -15.6547 -15.0149 -14.9031 -14.7581
    -3.6386  -3.6093  -3.5162  -3.4753  -3.4612  -3.4479  -0.8361  -0.6759
    -0.3056  -0.1585   0.0607   0.0761   0.1376   0.2947   0.7648   0.7847
     0.8347   1.0264   1.0547   1.2356   1.3927   1.4299   1.4562   1.5662
     1.5924   1.7002   1.7949   1.9581   2.0196   2.0592   2.1383   2.2735
     2.2994   2.3262   2.4162   2.4935   2.4963   2.5168   2.5601   2.6346
     2.6490   2.7626   4.4888   4.4978   4.5041   4.5273   4.5432   4.6056
     4.6438   4.6455   4.6521   4.6772   4.6887   4.6939   4.7205   4.7280
    11.1987  11.6468  11.8510  12.5439  12.5730  12.7676  12.8268  13.0420
    13.4271  13.5407  13.8303  13.8931  14.1800  14.2140  14.3244  14.4340
    14.6310  14.7039  14.8248  15.3089  15.3307  15.6966  15.7414  16.4433
    16.8685  17.3127  17.7188  18.2523  18.4123  18.6228  18.9316  19.1866
    19.4046  19.6057  20.0068  20.0115  20.1430  20.5262  20.6971  20.9795
    21.1637  21.2848  21.6120  21.7651  21.8810  21.9587  22.1367  22.9382
    23.1900  23.3349  23.4554  23.9433  24.2271  24.4187  24.4573  24.5874
    24.8199  25.2207  25.4615  25.8440  25.9843  26.0598  26.3861  26.8509
    27.3594  27.4951  27.7657  27.7840  27.8363  28.0881  28.5297  28.5368
    29.0731  29.2978  29.4243  29.6416  29.7308  30.0419  30.1710  30.5535
    30.7630  30.8246  31.0379  31.3475  31.6123  31.6384  32.0596  32.3389
    32.4448  32.5265  32.7816  32.8759  33.2289  33.4301  33.6562  33.7002
    33.9565  34.0287  34.6946  34.7894  34.9421  35.1114  35.1977  35.2001
    35.3614  35.6804  35.9066  35.9800  36.2006  36.5374  36.6571  36.8571
    36.9830  37.0400  37.5144  37.5660  37.6914  37.7856  38.0916  38.2404
    38.4623  38.6813  38.7762  38.9050  39.2430  39.3051  39.4961  39.6295
    39.8975  40.0014

          k = 0.2227 0.4000-0.1741 ( 13432 PWs)   bands (ev):

   -92.7610 -92.7610 -41.1084 -41.0995 -19.3676 -19.3220 -18.1783 -18.0373
   -17.8657 -17.8116 -17.7378 -17.4609 -17.2494 -17.2003 -16.9553 -16.8835
   -16.8128 -16.5917 -15.7080 -15.6661 -15.5633 -14.9762 -14.9606 -14.7885
    -3.6225  -3.6071  -3.5168  -3.4757  -3.4428  -3.4346  -0.8190  -0.6979
    -0.3074  -0.1896  -0.0050   0.1289   0.1394   0.2314   0.7044   0.8824
     1.0076   1.0872   1.1185   1.2359   1.3335   1.4481   1.4929   1.5839
     1.6261   1.7920   1.8341   1.8708   1.9381   2.0073   2.1009   2.1343
[...]
    25.3180  25.4228  25.6716  25.8316  26.1164  26.2374  26.5258  26.8646
    27.1244  27.2237  27.5361  27.8032  27.9707  28.0238  28.4886  28.6488
    28.8847  29.1098  29.3284  29.6029  29.8168  29.8523  30.1034  30.4212
    30.8102  30.9925  31.0421  31.3546  31.4996  31.6888  31.8404  32.1093
    32.1943  32.4338  32.7001  32.9679  33.2499  33.4926  33.6320  33.7595
    34.0536  34.1935  34.3590  34.4083  34.4762  34.8125  34.9650  35.3124
    35.5151  35.6246  35.7092  35.9052  36.0793  36.4009  36.5497  36.8945
    36.9219  37.0025  37.2009  37.5038  37.5717  37.7288  38.1400  38.3187
    38.3706  38.5637  38.7542  38.9862  39.1257  39.4365  39.6493  40.1050
    40.1877  40.3343

          k = 0.2227 0.4000-0.4221 ( 13440 PWs)   bands (ev):

   -92.7610 -92.7610 -41.1084 -41.0995 -19.3647 -19.3256 -18.1846 -18.0101
   -17.8908 -17.8200 -17.7243 -17.4750 -17.2439 -17.1718 -16.9760 -16.8919
   -16.8003 -16.5934 -15.6937 -15.6863 -15.5649 -14.9686 -14.9591 -14.7922
    -3.6255  -3.6065  -3.5082  -3.4740  -3.4474  -3.4290  -0.8318  -0.7046
    -0.2636  -0.2126  -0.0279   0.1385   0.1525   0.2125   0.8085   0.8854
     0.9996   1.0308   1.2095   1.2143   1.2989   1.4089   1.4655   1.5405
     1.5619   1.7222   1.8238   1.8844   1.9928   2.0155   2.0787   2.1908
     2.3112   2.3345   2.3623   2.3840   2.5003   2.5446   2.5876   2.6234
     2.6721   2.7313   4.4843   4.4912   4.5065   4.5297   4.5449   4.5810
     4.6476   4.6505   4.6639   4.6776   4.6858   4.6930   4.7101   4.7222
    11.5868  11.7052  12.3593  12.3938  12.5795  12.6853  12.8670  12.9565
    13.1808  13.6060  13.7836  13.9938  14.0790  14.1398  14.2786  14.3285
    14.4437  14.7046  15.0001  15.3168  15.3585  15.7711  15.7927  16.4066
    16.7031  17.0465  17.7386  18.2313  18.4423  18.7832  18.8204  19.0757
    19.3558  19.6322  19.6662  19.7792  20.4260  20.4637  20.7786  21.0106
    21.1840  21.5118  21.5521  21.8820  21.8998  22.0774  22.5386  22.7317
    22.9246  23.1798  23.4160  23.9648  24.0474  24.3750  24.7621  24.8368
    25.3343  25.5251  25.7684  25.7939  26.1524  26.3305  26.5625  26.8668
    26.9630  27.2884  27.4479  27.8315  27.9136  28.1063  28.4629  28.6499
    28.9258  29.0828  29.3606  29.4081  29.7278  30.0701  30.2426  30.5401
    30.6366  30.9405  31.0297  31.1398  31.4114  31.5590  31.9488  32.0456
    32.1693  32.5235  32.8074  33.0525  33.3119  33.5829  33.6979  33.7979
    34.1235  34.3381  34.5197  34.6105  34.8852  34.9130  34.9563  35.1336
    35.5825  35.6439  35.7296  35.9718  36.2369  36.3650  36.5856  36.6549
    36.9996  37.1836  37.4445  37.4882  37.6658  37.7666  38.0998  38.1756
    38.3614  38.6285  38.7026  38.9473  39.0817  39.3086  39.6189  39.9607
    40.0209  40.2606

          k = 0.2227 0.4000 0.3220 ( 13434 PWs)   bands (ev):

   -92.7610 -92.7610 -41.1084 -41.0995 -19.3611 -19.3289 -18.1889 -18.0181
   -17.8598 -17.8535 -17.6959 -17.4792 -17.2407 -17.2134 -16.9368 -16.8909
   -16.8055 -16.5977 -15.7059 -15.6767 -15.5643 -14.9647 -14.9605 -14.7946
    -3.6195  -3.6174  -3.4912  -3.4776  -3.4448  -3.4305  -0.8365  -0.6949
    -0.2415  -0.1747  -0.1086   0.1720   0.1845   0.2293   0.7842   0.8277
     0.9506   1.0914   1.1199   1.1830   1.3225   1.4016   1.4181   1.5503
     1.6329   1.6848   1.7966   1.8930   1.9525   1.9700   2.1888   2.2946
     2.3235   2.3519   2.3615   2.4269   2.4897   2.5069   2.5515   2.6214
     2.6536   2.7530   4.4819   4.4926   4.5070   4.5285   4.5428   4.5815
     4.6459   4.6543   4.6648   4.6756   4.6875   4.6924   4.7141   4.7267
    11.5256  11.7074  12.0983  12.5601  12.6141  12.7451  12.9170  13.0859
    13.2389  13.7394  13.8228  13.9799  14.0926  14.1283  14.3243  14.4117
    14.4909  14.7435  14.7968  15.2727  15.3062  15.4169  15.7578  16.2421
    16.9345  17.0583  17.6105  18.0409  18.3019  18.4473  18.7831  19.1300
    19.5859  19.6978  19.9162  20.1279  20.2631  20.5192  20.7401  21.0404
    21.2710  21.5147  21.6770  21.9676  22.2186  22.2719  22.4475  22.6491
    23.1439  23.2299  23.5419  23.7174  24.2578  24.5123  24.6071  24.7027
    24.8258  25.2415  25.7167  25.9926  26.2127  26.3789  26.4960  26.7236
    26.9505  27.2456  27.3377  27.5775  27.7953  27.9015  28.1447  28.6436
    28.7934  29.1545  29.4153  29.4971  29.6841  29.8835  30.2051  30.6723
    30.8213  30.9574  31.0303  31.1371  31.3884  31.5341  31.6814  31.9849
    32.5001  32.6865  32.7927  33.2517  33.4750  33.6734  33.8964  33.9425
    33.9909  34.2532  34.3718  34.7549  35.0252  35.0996  35.1153  35.3625
    35.4741  35.7138  35.9063  35.9998  36.1167  36.2131  36.3758  36.6725
    37.0212  37.2917  37.4488  37.6397  37.8687  38.0893  38.2754  38.3445
    38.4004  38.4830  38.9260  39.1466  39.2853  39.4493  39.5681  39.9666
    40.1448  40.2607

          k = 0.2227 0.4000 0.0739 ( 13428 PWs)   bands (ev):

   -92.7610 -92.7610 -41.1084 -41.0995 -19.3646 -19.3247 -18.1795 -18.0525
   -17.8724 -17.7880 -17.7036 -17.5151 -17.2415 -17.1966 -16.9359 -16.8751
   -16.8301 -16.5944 -15.6962 -15.6721 -15.5707 -14.9799 -14.9519 -14.7924
    -3.6251  -3.6079  -3.5051  -3.4732  -3.4512  -3.4276  -0.8230  -0.6873
    -0.2775  -0.1935  -0.0537   0.1399   0.1901   0.2263   0.7752   0.8575
     0.9075   1.0556   1.0838   1.2600   1.2940   1.4484   1.4931   1.5335
     1.6013   1.7693   1.7854   1.9080   1.9659   2.0185   2.1546   2.2405
     2.2705   2.3192   2.3905   2.4566   2.4996   2.5009   2.5545   2.5986
     2.6576   2.7326   4.4811   4.4932   4.5070   4.5279   4.5431   4.5821
     4.6504   4.6538   4.6638   4.6763   4.6875   4.6934   4.7093   4.7250
    11.3815  11.6899  11.9786  12.5867  12.6668  12.8393  12.8589  13.0643
    13.3675  13.6312  13.7434  13.9575  14.0131  14.1821  14.3337  14.4518
    14.6227  14.7688  14.8466  15.2817  15.3295  15.5466  15.8410  16.3677
    16.4407  17.2380  17.5601  18.1406  18.3511  18.6251  18.9055  19.1249
    19.3077  19.5477  19.9656  20.0949  20.4638  20.5014  20.8657  21.0531
    21.2138  21.4712  21.6909  21.9118  21.9891  22.1050  22.2193  22.6127
    23.0164  23.3824  23.5632  24.0380  24.2078  24.3197  24.7424  24.8772
    24.9559  25.2185  25.8246  25.9234  25.9726  26.2082  26.4380  26.7399
    27.0848  27.4526  27.5628  27.7383  27.9231  28.2366  28.3849  28.5697
    28.8342  28.9353  29.2490  29.5355  29.7986  30.0079  30.0990  30.1488
    30.5621  30.7536  31.0402  31.3251  31.4605  31.5901  31.9432  32.1019
    32.4950  32.5028  32.5706  32.9701  33.3754  33.3998  33.5923  33.7152
    34.1364  34.2003  34.3576  34.4770  34.6784  34.9311  35.0760  35.3490
    35.6325  35.8186  35.9863  36.1522  36.4899  36.5700  36.6062  36.7902
    36.9950  37.3067  37.3383  37.5071  37.6225  37.9907  38.0803  38.3944
    38.6401  38.9102  39.0901  39.2484  39.2564  39.4913  39.5858  39.9923
    40.1271  40.1960

          k = 0.4454 0.4000-0.1741 ( 13427 PWs)   bands (ev):

   -92.7610 -92.7610 -41.1056 -41.1022 -19.3498 -19.3323 -18.1809 -18.0793
   -17.8797 -17.7535 -17.6455 -17.5394 -17.2918 -17.2136 -16.9146 -16.8857
   -16.7779 -16.7041 -15.7071 -15.6587 -15.3401 -15.1214 -14.9110 -14.8556
    -3.6204  -3.6015  -3.4971  -3.4750  -3.4150  -3.3909  -0.7690  -0.7186
    -0.2578  -0.1588  -0.0621   0.0435   0.1370   0.1553   0.8310   0.9658
     1.0523   1.1190   1.1930   1.2266   1.2947   1.3501   1.4793   1.5600
     1.6306   1.6455   1.8634   1.8983   1.9464   2.0238   2.0802   2.1217
     2.1951   2.2675   2.3549   2.3901   2.4802   2.5157   2.5838   2.6028
     2.6574   2.6935   4.4715   4.4749   4.5250   4.5360   4.5400   4.5533
     4.6604   4.6639   4.6741   4.6788   4.6818   4.6843   4.7000   4.7152
    11.7067  11.7369  12.4260  12.6903  12.7621  12.7794  12.9951  13.0681
    13.2570  13.3802  13.7136  13.8446  13.9085  14.0322  14.3702  14.4675
    14.6145  14.8756  15.0922  15.2263  15.4862  15.5421  15.6599  15.8138
    16.3847  16.5554  18.0438  18.0909  18.4703  18.5617  19.2079  19.2472
    19.4795  19.6329  19.8260  19.9083  20.2537  20.3962  20.6186  20.6587
    21.1889  21.3793  21.5288  21.8189  22.2326  22.3906  22.7405  22.9558
    23.0990  23.6410  23.7909  24.0339  24.3686  24.4503  24.7410  24.8905
    25.4526  25.6044  25.8001  26.0767  26.2345  26.4370  26.4798  26.5383
    26.7320  27.2823  27.4098  27.5179  27.8099  27.9166  28.0928  28.5898
    28.7447  28.9441  29.2349  29.3352  29.6569  30.0019  30.1929  30.4542
    30.5715  30.6320  31.1196  31.2545  31.3933  31.5028  31.7039  31.8412
    32.2944  32.4188  32.6914  32.7479  32.8906  33.2593  33.6079  33.7694
    33.9228  34.1814  34.4608  34.5950  34.8661  34.9634  35.0612  35.3047
    35.3918  35.5264  35.7485  36.0198  36.1901  36.3145  36.4606  36.6931
    36.9869  37.0601  37.1353  37.4438  37.9588  38.0132  38.4414  38.5280
    38.6264  38.8701  38.9476  39.3373  39.4006  39.7392  39.7458  39.9020
    40.1842  40.3429

          k = 0.4454 0.4000-0.4221 ( 13425 PWs)   bands (ev):

   -92.7610 -92.7610 -41.1056 -41.1022 -19.3488 -19.3339 -18.1904 -18.0915
   -17.8488 -17.7026 -17.6474 -17.5994 -17.2744 -17.2280 -16.9231 -16.8889
   -16.7760 -16.7027 -15.6924 -15.6556 -15.3436 -15.1190 -14.9133 -14.8625
    -3.6122  -3.5906  -3.4910  -3.4787  -3.4233  -3.3966  -0.7628  -0.7087
    -0.2463  -0.1682  -0.0835   0.0432   0.1527   0.1764   0.8312   0.9408
     0.9729   1.0516   1.1923   1.2831   1.3411   1.3901   1.4855   1.4931
     1.5787   1.6680   1.7972   1.8808   1.9763   2.0232   2.1026   2.1649
     2.2613   2.2763   2.3484   2.3625   2.5023   2.5380   2.5632   2.5806
     2.6750   2.6948   4.4718   4.4748   4.5250   4.5352   4.5405   4.5530
     4.6541   4.6622   4.6708   4.6809   4.6847   4.6887   4.7018   4.7141
    11.7151  11.7570  12.5688  12.6324  12.6796  12.8189  13.0923  13.1662
    13.3123  13.4419  13.6888  13.7952  13.9342  14.0198  14.3106  14.4075
    14.4940  14.9405  14.9786  15.2240  15.5336  15.5420  15.7812  15.9253
    16.1506  16.2831  17.9462  18.1117  18.6694  18.7703  18.8465  19.1404
    19.2007  19.5462  19.9802  20.0770  20.3312  20.5066  20.5335  20.9285
    21.4351  21.5294  21.6892  21.7356  22.1500  22.2550  22.8328  23.0698
    23.1820  23.1855  23.5838  23.9308  24.2538  24.4672  24.7433  25.1062
    25.3922  25.6607  25.8707  26.0129  26.1758  26.3085  26.4877  26.7455
    27.0401  27.1356  27.2842  27.3891  27.6698  28.1847  28.2026  28.4029
    28.8936  29.0281  29.2178  29.4779  29.6799  29.7426  30.2633  30.3595
    30.5195  30.6070  30.7721  31.0071  31.3458  31.5226  31.9531  32.1431
    32.1776  32.3652  32.6457  32.8447  33.0671  33.4310  33.5260  33.6521
    33.8527  34.0483  34.2735  34.3981  34.7088  35.0079  35.2630  35.3478
    35.8143  35.8402  36.0332  36.1521  36.3221  36.4559  36.7895  37.0093
    37.0968  37.2465  37.4092  37.5741  37.8724  37.9621  38.1607  38.5532
    38.6997  38.7624  38.9753  39.3682  39.4534  39.6134  39.7324  39.8184
    39.9209  40.0717

          k = 0.4454 0.4000 0.3220 ( 13448 PWs)   bands (ev):

   -92.7610 -92.7610 -41.1056 -41.1022 -19.3473 -19.3350 -18.1867 -18.0794
   -17.8588 -17.7101 -17.7013 -17.5687 -17.2819 -17.1885 -16.9084 -16.8904
   -16.7783 -16.7144 -15.7006 -15.6623 -15.3398 -15.1179 -14.9110 -14.8617
    -3.6021  -3.5854  -3.4896  -3.4830  -3.4265  -3.3996  -0.7897  -0.7332
    -0.2232  -0.1808  -0.1069   0.0522   0.2098   0.2425   0.8053   0.8731
     0.9956   1.0882   1.1830   1.2415   1.3173   1.4057   1.4261   1.4566
     1.6730   1.7064   1.8038   1.8113   1.9939   2.0511   2.1951   2.2020
     2.2336   2.2675   2.3094   2.3437   2.4963   2.5104   2.5497   2.5964
     2.6564   2.6933   4.4705   4.4746   4.5248   4.5357   4.5387   4.5539
     4.6493   4.6630   4.6699   4.6803   4.6885   4.6940   4.6986   4.7158
    11.7002  11.7594  12.4945  12.6412  12.7793  12.8849  12.9250  13.2147
    13.2533  13.5682  13.7926  13.8679  14.0293  14.1411  14.2902  14.4064
    14.5083  14.9119  15.0557  15.1894  15.3446  15.3912  15.7869  15.8478
    16.1871  16.3983  17.6846  17.8477  18.4824  18.5384  18.7858  19.1062
    19.5490  19.6607  19.8827  19.9479  20.2699  20.6597  20.7479  20.8859
    21.4199  21.7935  21.9917  22.1174  22.2339  22.4248  22.7139  22.7659
    23.2235  23.4036  23.8327  24.0867  24.1194  24.3302  24.8359  25.0954
    25.2408  25.6016  25.7041  25.8947  26.0316  26.1870  26.5612  26.8252
    26.9276  27.2002  27.4269  27.5069  27.6497  27.6726  28.1053  28.3040
    28.3475  28.9563  29.0270  29.1970  29.5928  29.7114  29.9782  30.2607
    30.4447  30.7539  31.0336  31.2264  31.5475  31.5950  31.8809  32.1328
    32.4215  32.4709  32.6304  32.8537  33.1541  33.2334  33.4513  33.6559
    33.8066  34.3104  34.4198  34.5506  34.8149  35.2962  35.4958  35.5549
    35.7668  35.8722  35.9440  36.3110  36.3815  36.8162  37.0852  37.1110
    37.3664  37.4209  37.6969  37.8276  37.9735  38.2164  38.2542  38.4787
    38.5878  38.6973  38.8512  39.0866  39.2217  39.4619  39.6006  39.6754
    40.1074  40.2073

          k = 0.4454 0.4000 0.0739 ( 13438 PWs)   bands (ev):

   -92.7610 -92.7610 -41.1056 -41.1022 -19.3485 -19.3332 -18.1760 -18.0694
   -17.9014 -17.7240 -17.6585 -17.6029 -17.2505 -17.1843 -16.9066 -16.8861
   -16.7931 -16.7076 -15.7106 -15.6670 -15.3420 -15.1164 -14.9082 -14.8558
    -3.6136  -3.5944  -3.4916  -3.4824  -3.4191  -3.3924  -0.7948  -0.7417
    -0.2284  -0.1942  -0.0792   0.0588   0.1828   0.2224   0.8620   0.9510
     0.9771   1.0508   1.1948   1.2336   1.3155   1.4256   1.4503   1.4910
     1.6599   1.6872   1.8279   1.8969   1.9528   1.9907   2.1410   2.1755
     2.2352   2.2673   2.3025   2.3602   2.4710   2.5047   2.5891   2.6092
     2.6442   2.6771   4.4702   4.4748   4.5251   4.5352   4.5394   4.5541
     4.6552   4.6657   4.6687   4.6800   4.6862   4.6894   4.7006   4.7151
    11.6674  11.7453  12.4215  12.6855  12.7969  12.9030  12.9671  13.0883
    13.1953  13.3987  13.7612  13.8734  13.9606  14.1002  14.3320  14.5016
    14.7132  14.9322  15.0274  15.1070  15.3698  15.5494  15.7529  15.8848
    16.2334  16.6637  17.6601  17.9243  18.3943  18.5592  18.7527  18.9885
    19.4350  19.5058  20.1849  20.2432  20.3090  20.4746  20.5892  20.9114
    21.4400  21.5750  21.8348  22.0846  22.3212  22.4678  22.6717  22.8762
    23.0680  23.2786  23.7665  23.9418  24.3824  24.7766  24.8439  25.0799
    25.1590  25.5595  25.7237  25.8248  26.0628  26.1900  26.4521  26.8472
    27.0014  27.1852  27.3402  27.5200  27.6598  27.9407  28.1330  28.2747
    28.5904  28.7589  29.0604  29.3132  29.5061  29.7934  30.0882  30.2209
    30.4478  30.7966  31.1094  31.1900  31.4222  31.6970  31.8145  32.0990
    32.1187  32.2339  32.5009  32.9450  33.0799  33.3738  33.6297  33.6789
    33.8689  34.0840  34.2421  34.4537  34.5552  35.0814  35.3203  35.5498
    35.7527  35.8701  36.1345  36.2048  36.5321  36.6903  36.9348  37.0538
    37.3743  37.5184  37.5930  37.7513  37.9634  38.0481  38.2617  38.3871
    38.5450  38.8460  39.0672  39.1001  39.4409  39.5800  39.6184  39.9268
    40.0379  40.2281

     the Fermi energy is     4.6872 ev

!    total energy              =   -2399.13759908 Ry
     estimated scf accuracy    <          8.1E-09 Ry
     smearing contrib. (-TS)   =      -0.00712092 Ry
     internal energy E=F+TS    =   -2399.13047815 Ry

     The total energy is F=E-TS. E is the sum of the following terms:
     one-electron contribution =    -932.76094981 Ry
     hartree contribution      =     526.13924749 Ry
     xc contribution           =    -198.81154347 Ry
     ewald contribution        =    -823.30103618 Ry
     one-center paw contrib.   =    -970.39619619 Ry

     convergence has been achieved in  56 iterations

     Forces acting on atoms (cartesian axes, Ry/au):

     atom    1 type  4   force =     0.00000000   -0.00050896    0.00030193
     atom    2 type  4   force =     0.00000000    0.00050896   -0.00030193
     atom    3 type  3   force =     0.00000000    0.00081889    0.01031124
     atom    4 type  3   force =     0.00000000   -0.00081889   -0.01031124
     atom    5 type  1   force =     0.00000000    0.00025252    0.00782051
     atom    6 type  1   force =     0.00000000   -0.00025252   -0.00782051
     atom    7 type  2   force =     0.00776054   -0.00055229    0.00669493
     atom    8 type  2   force =    -0.00776054    0.00055229   -0.00669493
     atom    9 type  2   force =     0.00776054    0.00055229   -0.00669493
     atom   10 type  2   force =    -0.00776054   -0.00055229    0.00669493
     atom   11 type  2   force =     0.00000000   -0.01244765   -0.00369049
     atom   12 type  2   force =     0.00000000    0.01244765    0.00369049
     atom   13 type  2   force =    -0.00015069   -0.00680373    0.00000509
     atom   14 type  2   force =     0.00015069    0.00680373   -0.00000509
     atom   15 type  2   force =    -0.00015069    0.00680373   -0.00000509
     atom   16 type  2   force =     0.00015069   -0.00680373    0.00000509
     atom   17 type  2   force =     0.00000000    0.00757053   -0.00803931
     atom   18 type  2   force =     0.00000000   -0.00757053    0.00803931

     Total force =     0.039049     Total SCF correction =     0.000072


     Computing stress (Cartesian axis) and pressure

          total   stress  (Ry/bohr**3)                   (kbar)     P=       16.29
   0.00015084   0.00000000   0.00000000           22.19        0.00        0.00
   0.00000000   0.00008554   0.00001767            0.00       12.58        2.60
   0.00000000   0.00001767   0.00009574            0.00        2.60       14.08


     Writing all to output data dir ./pwscf.save/ :
     XML data file, charge density, pseudopotentials, collected wavefunctions

     init_run     :     40.05s CPU     21.51s WALL (       1 calls)
     electrons    :   8672.57s CPU   4513.11s WALL (       1 calls)
     forces       :     41.55s CPU     22.63s WALL (       1 calls)
     stress       :     91.49s CPU     52.17s WALL (       1 calls)

     Called by init_run:
     wfcinit      :     37.40s CPU     19.05s WALL (       1 calls)
     potinit      :      0.99s CPU      0.77s WALL (       1 calls)
     hinit0       :      0.53s CPU      0.53s WALL (       1 calls)

     Called by electrons:
     c_bands      :   7143.78s CPU   3640.99s WALL (      56 calls)
     sum_band     :   1378.93s CPU    752.46s WALL (      56 calls)
     v_of_rho     :     13.15s CPU      6.93s WALL (      57 calls)
     newd         :     84.08s CPU     73.45s WALL (      57 calls)
     PAW_pot      :     48.34s CPU     36.50s WALL (      57 calls)
     mix_rho      :      3.27s CPU      2.11s WALL (      56 calls)

     Called by c_bands:
     init_us_2    :     69.34s CPU     35.57s WALL (    3795 calls)
     cegterg      :   6980.49s CPU   3554.74s WALL (    1848 calls)

     Called by *egterg:
     cdiaghg      :    442.27s CPU    224.51s WALL (    4235 calls)
     h_psi        :   4823.06s CPU   2466.36s WALL (    4268 calls)
     s_psi        :    211.87s CPU    107.10s WALL (    4268 calls)
     g_psi        :     14.44s CPU      8.78s WALL (    2387 calls)

     Called by h_psi:
     h_psi:calbec :    294.32s CPU    148.86s WALL (    4268 calls)
     vloc_psi     :   4309.54s CPU   2207.15s WALL (    4268 calls)
                                        0.00s GPU  (    4268 calls)
     add_vuspsi   :    169.07s CPU     85.12s WALL (    4268 calls)

     General routines
     calbec       :    516.67s CPU    261.58s WALL (    6677 calls)
     fft          :     11.41s CPU      6.68s WALL (     764 calls)
     ffts         :      1.99s CPU      1.09s WALL (     113 calls)
     fftw         :   5035.48s CPU   2577.32s WALL ( 1983924 calls)
     interpolate  :      1.45s CPU      1.00s WALL (      57 calls)

     Parallel routines

     PWSCF        :      2h27m CPU      1h17m WALL


   This run was terminated on:  18:21: 0  16Apr2026            

=------------------------------------------------------------------------------=
   JOB DONE.
=------------------------------------------------------------------------------=
