
     Program PWSCF v.7.5 starts on 16Apr2026 at 10:38:11 

     This program is part of the open-source Quantum ESPRESSO suite
     for quantum simulation of materials; please cite
         "P. Giannozzi et al., J. Phys.:Condens. Matter 21 395502 (2009);
         "P. Giannozzi et al., J. Phys.:Condens. Matter 29 465901 (2017);
         "P. Giannozzi et al., J. Chem. Phys. 152 154105 (2020);
          URL http://www.quantum-espresso.org", 
     in publications or presentations arising from this work. More details at
     http://www.quantum-espresso.org/quote

     Parallel version (MPI & OpenMP), running on       8 processor cores
     Number of MPI processes:                 4
     Threads/MPI process:                     2

     MPI processes distributed on     1 nodes
     6742 MiB available memory on the printing compute node when the environment starts

     Reading input from nscf.in
Warning: card &IONS ignored
Warning: card &CELL ignored

     Current dimensions of program PWSCF are:
     Max number of different atomic species (ntypx) = 10
     Max number of k-points (npk) =  40000
     Max angular momentum in pseudopotentials (lmaxx) =  4

     Atomic positions and unit cell read from directory:
     ./pwscf.save/

     Message from routine setup:
     using ibrav=0 with symmetry is DISCOURAGED, use correct ibrav instead

     R & G space division:  proc/nbgrp/npool/nimage =       4
     Subspace diagonalization in iterative solution of the eigenvalue problem:
     a serial algorithm will be used


     Parallelization info
     --------------------
     sticks:   dense  smooth     PW     G-vecs:    dense   smooth      PW
     Min         277     139     40                11692     4135     684
     Max         278     140     41                11694     4140     691
     Sum        1111     559    163                46773    16551    2755

     Using Slab Decomposition



     bravais-lattice index     =            0
     lattice parameter (alat)  =       5.7843  a.u.
     unit-cell volume          =     263.2330 (a.u.)^3
     number of atoms/cell      =            4
     number of atomic types    =            2
     number of electrons       =        20.00
     number of Kohn-Sham states=           30
     kinetic-energy cutoff     =      60.0000  Ry
     charge density cutoff     =     480.0000  Ry
     Exchange-correlation=  SLA  PW   PBX  PBC
                           (   1   4   3   4   0   0   0)

     celldm(1)=   5.784339  celldm(2)=   0.000000  celldm(3)=   0.000000
     celldm(4)=   0.000000  celldm(5)=   0.000000  celldm(6)=   0.000000

     crystal axes: (cart. coord. in units of alat)
               a(1) = (   0.500000  -0.866025   0.000000 )  
               a(2) = (   0.500000   0.866025   0.000000 )  
               a(3) = (   0.000000   0.000000   1.570539 )  

     reciprocal axes: (cart. coord. in units 2 pi/alat)
               b(1) = (  1.000000 -0.577350  0.000000 )  
               b(2) = (  1.000000  0.577350 -0.000000 )  
               b(3) = ( -0.000000  0.000000  0.636724 )  


     PseudoPot. # 1 for F  read from file:
     /mnt/d/DeepESense/pseudo/SSSP_1.3.0_PBE_efficiency/f_pbe_v1.4.uspp.F.UPF
     MD5 check sum: 4c38b6a325caf53ec0e86aed9459de46
     Pseudo is Ultrasoft, Zval =  7.0
     Generated by new atomic code, or converted to UPF format
     Using radial grid of  799 points,  4 beta functions with: 
                l(1) =   0
                l(2) =   0
                l(3) =   1
                l(4) =   1
     Q(r) pseudized with  8 coefficients,  rinner =    0.950   0.950   0.950


     PseudoPot. # 2 for Li read from file:
     /mnt/d/DeepESense/pseudo/SSSP_1.3.0_PBE_efficiency/li_pbe_v1.4.uspp.F.UPF
     MD5 check sum: e912e257baa3777c20ea3d68f190483c
     Pseudo is Ultrasoft, Zval =  3.0
     Generated by new atomic code, or converted to UPF format
     Using radial grid of  751 points,  5 beta functions with: 
                l(1) =   0
                l(2) =   0
                l(3) =   0
                l(4) =   1
                l(5) =   1
     Q(r) pseudized with 10 coefficients,  rinner =    1.150   1.150   1.150


     atomic species   valence    mass     pseudopotential
     F                 7.00    18.99840     F ( 1.00)
     Li                3.00     6.94100     Li( 1.00)

     12 Sym. Ops. (no inversion) found ( 6 have fractional translation)


                                    s                        frac. trans.

      isym =  1     identity                                     

 cryst.   s( 1) = (     1          0          0      )
                  (     0          1          0      )
                  (     0          0          1      )

 cart.    s( 1) = (  1.0000000  0.0000000  0.0000000 )
                  (  0.0000000  1.0000000  0.0000000 )
                  (  0.0000000  0.0000000  1.0000000 )


      isym =  2     180 deg rotation - cart. axis [0,0,1]        

 cryst.   s( 2) = (    -1          0          0      )    f =(  0.0000000 )
                  (     0         -1          0      )       (  0.0000000 )
                  (     0          0          1      )       (  0.5000000 )

 cart.    s( 2) = ( -1.0000000  0.0000000  0.0000000 )    f =(  0.0000000 )
                  (  0.0000000 -1.0000000  0.0000000 )       (  0.0000000 )
                  (  0.0000000  0.0000000  1.0000000 )       (  0.7852693 )


      isym =  3      60 deg rotation - cryst. axis [0,0,1]       

 cryst.   s( 3) = (     1          1          0      )    f =(  0.0000010 )
                  (    -1          0          0      )       (  0.0000000 )
                  (     0          0          1      )       (  0.5000000 )

 cart.    s( 3) = (  0.5000000 -0.8660253  0.0000000 )    f =(  0.0000005 )
                  (  0.8660255  0.5000000  0.0000000 )       ( -0.0000009 )
                  (  0.0000000  0.0000000  1.0000000 )       (  0.7852693 )


      isym =  4      60 deg rotation - cryst. axis [0,0,-1]      

 cryst.   s( 4) = (     0         -1          0      )    f =(  0.0000000 )
                  (     1          1          0      )       ( -0.0000010 )
                  (     0          0          1      )       (  0.5000000 )

 cart.    s( 4) = (  0.5000000  0.8660253  0.0000000 )    f =( -0.0000005 )
                  ( -0.8660255  0.5000000  0.0000000 )       ( -0.0000009 )
                  (  0.0000000  0.0000000  1.0000000 )       (  0.7852693 )


      isym =  5     120 deg rotation - cryst. axis [0,0,1]       

 cryst.   s( 5) = (     0          1          0      )
                  (    -1         -1          0      )
                  (     0          0          1      )

 cart.    s( 5) = ( -0.5000000 -0.8660253  0.0000000 )
                  (  0.8660255 -0.5000000  0.0000000 )
                  (  0.0000000  0.0000000  1.0000000 )


      isym =  6     120 deg rotation - cryst. axis [0,0,-1]      

 cryst.   s( 6) = (    -1         -1          0      )
                  (     1          0          0      )
                  (     0          0          1      )

 cart.    s( 6) = ( -0.5000000  0.8660253  0.0000000 )
                  ( -0.8660255 -0.5000000  0.0000000 )
                  (  0.0000000  0.0000000  1.0000000 )


      isym =  7     inv. 180 deg rotation - cart. axis [0,1,0]   

 cryst.   s( 7) = (     0          1          0      )    f =(  0.0000000 )
                  (     1          0          0      )       (  0.0000000 )
                  (     0          0          1      )       (  0.5000000 )

 cart.    s( 7) = (  1.0000000  0.0000000  0.0000000 )    f =(  0.0000000 )
                  (  0.0000000 -1.0000000  0.0000000 )       (  0.0000000 )
                  (  0.0000000  0.0000000  1.0000000 )       (  0.7852693 )


      isym =  8     inv. 180 deg rotation - cart. axis [1,0,0]   

 cryst.   s( 8) = (     0         -1          0      )
                  (    -1          0          0      )
                  (     0          0          1      )

 cart.    s( 8) = ( -1.0000000  0.0000000  0.0000000 )
                  (  0.0000000  1.0000000  0.0000000 )
                  (  0.0000000  0.0000000  1.0000000 )


      isym =  9     inv. 180 deg rotation - cryst. axis [1,-1,0] 

 cryst.   s( 9) = (    -1         -1          0      )    f =(  0.0000000 )
                  (     0          1          0      )       ( -0.0000010 )
                  (     0          0          1      )       (  0.5000000 )

 cart.    s( 9) = ( -0.5000000  0.8660253  0.0000000 )    f =( -0.0000005 )
                  (  0.8660255  0.5000000  0.0000000 )       ( -0.0000009 )
                  (  0.0000000  0.0000000  1.0000000 )       (  0.7852693 )


      isym = 10     inv. 180 deg rotation - cryst. axis [2,1,0]  

 cryst.   s(10) = (     1          0          0      )    f =(  0.0000010 )
                  (    -1         -1          0      )       (  0.0000000 )
                  (     0          0          1      )       (  0.5000000 )

 cart.    s(10) = ( -0.5000000 -0.8660253  0.0000000 )    f =(  0.0000005 )
                  ( -0.8660255  0.5000000  0.0000000 )       ( -0.0000009 )
                  (  0.0000000  0.0000000  1.0000000 )       (  0.7852693 )


      isym = 11     inv. 180 deg rotation - cryst. axis [0,1,0]  

 cryst.   s(11) = (    -1          0          0      )
                  (     1          1          0      )
                  (     0          0          1      )

 cart.    s(11) = (  0.5000000  0.8660253  0.0000000 )
                  (  0.8660255 -0.5000000  0.0000000 )
                  (  0.0000000  0.0000000  1.0000000 )


      isym = 12     inv. 180 deg rotation - cryst. axis [1,1,0]  

 cryst.   s(12) = (     1          1          0      )
                  (     0         -1          0      )
                  (     0          0          1      )

 cart.    s(12) = (  0.5000000 -0.8660253  0.0000000 )
                  ( -0.8660255 -0.5000000  0.0000000 )
                  (  0.0000000  0.0000000  1.0000000 )


   Cartesian axes

     site n.     atom                  positions (alat units)
         1        Li     tau(   1) = (   0.5000000   0.2886757   0.5986171  )
         2        Li     tau(   2) = (   0.5000000  -0.2886757   1.3838865  )
         3        F      tau(   3) = (   0.5000000   0.2886757   1.5608705  )
         4        F      tau(   4) = (   0.5000000  -0.2886757   0.7756011  )

   Crystallographic axes

     site n.     atom                  positions (cryst. coord.)
         1        Li     tau(   1) = (  0.3333330  0.6666670  0.3811540  )
         2        Li     tau(   2) = (  0.6666670  0.3333330  0.8811540  )
         3        F      tau(   3) = (  0.3333330  0.6666670  0.9938440  )
         4        F      tau(   4) = (  0.6666670  0.3333330  0.4938440  )

     number of k points=   198  Marzari-Vanderbilt smearing, width (Ry)=  0.0050
                       cart. coord. in units 2pi/alat
        k(    1) = (   0.0000000   0.0000000   0.0000000), wk =   0.0006291
        k(    2) = (   0.0000000   0.0000000   0.0578840), wk =   0.0012583
        k(    3) = (   0.0000000   0.0000000   0.1157680), wk =   0.0012583
        k(    4) = (   0.0000000   0.0000000   0.1736521), wk =   0.0012583
        k(    5) = (   0.0000000   0.0000000   0.2315361), wk =   0.0012583
        k(    6) = (   0.0000000   0.0000000   0.2894201), wk =   0.0012583
        k(    7) = (   0.0588235   0.0339618   0.0000000), wk =   0.0037748
        k(    8) = (   0.0588235   0.0339618   0.0578840), wk =   0.0075495
        k(    9) = (   0.0588235   0.0339618   0.1157680), wk =   0.0075495
        k(   10) = (   0.0588235   0.0339618   0.1736521), wk =   0.0075495
        k(   11) = (   0.0588235   0.0339618   0.2315361), wk =   0.0075495
        k(   12) = (   0.0588235   0.0339618   0.2894201), wk =   0.0075495
        k(   13) = (   0.1176471   0.0679236   0.0000000), wk =   0.0037748
        k(   14) = (   0.1176471   0.0679236   0.0578840), wk =   0.0075495
        k(   15) = (   0.1176471   0.0679236   0.1157680), wk =   0.0075495
        k(   16) = (   0.1176471   0.0679236   0.1736521), wk =   0.0075495
        k(   17) = (   0.1176471   0.0679236   0.2315361), wk =   0.0075495
        k(   18) = (   0.1176471   0.0679236   0.2894201), wk =   0.0075495
        k(   19) = (   0.1764706   0.1018853   0.0000000), wk =   0.0037748
        k(   20) = (   0.1764706   0.1018853   0.0578840), wk =   0.0075495
        k(   21) = (   0.1764706   0.1018853   0.1157680), wk =   0.0075495
        k(   22) = (   0.1764706   0.1018853   0.1736521), wk =   0.0075495
        k(   23) = (   0.1764706   0.1018853   0.2315361), wk =   0.0075495
        k(   24) = (   0.1764706   0.1018853   0.2894201), wk =   0.0075495
        k(   25) = (   0.2352941   0.1358471   0.0000000), wk =   0.0037748
        k(   26) = (   0.2352941   0.1358471   0.0578840), wk =   0.0075495
        k(   27) = (   0.2352941   0.1358471   0.1157680), wk =   0.0075495
        k(   28) = (   0.2352941   0.1358471   0.1736521), wk =   0.0075495
        k(   29) = (   0.2352941   0.1358471   0.2315361), wk =   0.0075495
        k(   30) = (   0.2352941   0.1358471   0.2894201), wk =   0.0075495
        k(   31) = (   0.2941177   0.1698089   0.0000000), wk =   0.0037748
        k(   32) = (   0.2941177   0.1698089   0.0578840), wk =   0.0075495
        k(   33) = (   0.2941177   0.1698089   0.1157680), wk =   0.0075495
        k(   34) = (   0.2941177   0.1698089   0.1736521), wk =   0.0075495
        k(   35) = (   0.2941177   0.1698089   0.2315361), wk =   0.0075495
        k(   36) = (   0.2941177   0.1698089   0.2894201), wk =   0.0075495
        k(   37) = (   0.3529412   0.2037707   0.0000000), wk =   0.0037748
        k(   38) = (   0.3529412   0.2037707   0.0578840), wk =   0.0075495
        k(   39) = (   0.3529412   0.2037707   0.1157680), wk =   0.0075495
        k(   40) = (   0.3529412   0.2037707   0.1736521), wk =   0.0075495
        k(   41) = (   0.3529412   0.2037707   0.2315361), wk =   0.0075495
        k(   42) = (   0.3529412   0.2037707   0.2894201), wk =   0.0075495
        k(   43) = (   0.4117647   0.2377325   0.0000000), wk =   0.0037748
        k(   44) = (   0.4117647   0.2377325   0.0578840), wk =   0.0075495
        k(   45) = (   0.4117647   0.2377325   0.1157680), wk =   0.0075495
        k(   46) = (   0.4117647   0.2377325   0.1736521), wk =   0.0075495
        k(   47) = (   0.4117647   0.2377325   0.2315361), wk =   0.0075495
        k(   48) = (   0.4117647   0.2377325   0.2894201), wk =   0.0075495
        k(   49) = (   0.4705883   0.2716942   0.0000000), wk =   0.0037748
        k(   50) = (   0.4705883   0.2716942   0.0578840), wk =   0.0075495
        k(   51) = (   0.4705883   0.2716942   0.1157680), wk =   0.0075495
        k(   52) = (   0.4705883   0.2716942   0.1736521), wk =   0.0075495
        k(   53) = (   0.4705883   0.2716942   0.2315361), wk =   0.0075495
        k(   54) = (   0.4705883   0.2716942   0.2894201), wk =   0.0075495
        k(   55) = (   0.1176471   0.0000000   0.0000000), wk =   0.0037748
        k(   56) = (   0.1176471   0.0000000   0.0578840), wk =   0.0075495
        k(   57) = (   0.1176471   0.0000000   0.1157680), wk =   0.0075495
        k(   58) = (   0.1176471   0.0000000   0.1736521), wk =   0.0075495
        k(   59) = (   0.1176471   0.0000000   0.2315361), wk =   0.0075495
        k(   60) = (   0.1176471   0.0000000   0.2894201), wk =   0.0075495
        k(   61) = (   0.1764706   0.0339618   0.0000000), wk =   0.0075495
        k(   62) = (   0.1764706   0.0339618   0.0578840), wk =   0.0150991
        k(   63) = (   0.1764706   0.0339618   0.1157680), wk =   0.0150991
        k(   64) = (   0.1764706   0.0339618   0.1736521), wk =   0.0150991
        k(   65) = (   0.1764706   0.0339618   0.2315361), wk =   0.0150991
        k(   66) = (   0.1764706   0.0339618   0.2894201), wk =   0.0150991
        k(   67) = (   0.2352941   0.0679236   0.0000000), wk =   0.0075495
        k(   68) = (   0.2352941   0.0679236   0.0578840), wk =   0.0150991
        k(   69) = (   0.2352941   0.0679236   0.1157680), wk =   0.0150991
        k(   70) = (   0.2352941   0.0679236   0.1736521), wk =   0.0150991
        k(   71) = (   0.2352941   0.0679236   0.2315361), wk =   0.0150991
        k(   72) = (   0.2352941   0.0679236   0.2894201), wk =   0.0150991
        k(   73) = (   0.2941177   0.1018853   0.0000000), wk =   0.0075495
        k(   74) = (   0.2941177   0.1018853   0.0578840), wk =   0.0150991
        k(   75) = (   0.2941177   0.1018853   0.1157680), wk =   0.0150991
        k(   76) = (   0.2941177   0.1018853   0.1736521), wk =   0.0150991
        k(   77) = (   0.2941177   0.1018853   0.2315361), wk =   0.0150991
        k(   78) = (   0.2941177   0.1018853   0.2894201), wk =   0.0150991
        k(   79) = (   0.3529412   0.1358471   0.0000000), wk =   0.0075495
        k(   80) = (   0.3529412   0.1358471   0.0578840), wk =   0.0150991
        k(   81) = (   0.3529412   0.1358471   0.1157680), wk =   0.0150991
        k(   82) = (   0.3529412   0.1358471   0.1736521), wk =   0.0150991
        k(   83) = (   0.3529412   0.1358471   0.2315361), wk =   0.0150991
        k(   84) = (   0.3529412   0.1358471   0.2894201), wk =   0.0150991
        k(   85) = (   0.4117647   0.1698089   0.0000000), wk =   0.0075495
        k(   86) = (   0.4117647   0.1698089   0.0578840), wk =   0.0150991
        k(   87) = (   0.4117647   0.1698089   0.1157680), wk =   0.0150991
        k(   88) = (   0.4117647   0.1698089   0.1736521), wk =   0.0150991
        k(   89) = (   0.4117647   0.1698089   0.2315361), wk =   0.0150991
        k(   90) = (   0.4117647   0.1698089   0.2894201), wk =   0.0150991
        k(   91) = (   0.4705883   0.2037707   0.0000000), wk =   0.0075495
        k(   92) = (   0.4705883   0.2037707   0.0578840), wk =   0.0150991
        k(   93) = (   0.4705883   0.2037707   0.1157680), wk =   0.0150991
        k(   94) = (   0.4705883   0.2037707   0.1736521), wk =   0.0150991
        k(   95) = (   0.4705883   0.2037707   0.2315361), wk =   0.0150991
        k(   96) = (   0.4705883   0.2037707   0.2894201), wk =   0.0150991
        k(   97) = (   0.5294118   0.2377325   0.0000000), wk =   0.0037748
        k(   98) = (   0.5294118   0.2377325   0.0578840), wk =   0.0075495
        k(   99) = (   0.5294118   0.2377325   0.1157680), wk =   0.0075495
        k(  100) = (   0.5294118   0.2377325   0.1736521), wk =   0.0075495
        k(  101) = (   0.5294118   0.2377325   0.2315361), wk =   0.0075495
        k(  102) = (   0.5294118   0.2377325   0.2894201), wk =   0.0075495
        k(  103) = (   0.2352941   0.0000000   0.0000000), wk =   0.0037748
        k(  104) = (   0.2352941   0.0000000   0.0578840), wk =   0.0075495
        k(  105) = (   0.2352941   0.0000000   0.1157680), wk =   0.0075495
        k(  106) = (   0.2352941   0.0000000   0.1736521), wk =   0.0075495
        k(  107) = (   0.2352941   0.0000000   0.2315361), wk =   0.0075495
        k(  108) = (   0.2352941   0.0000000   0.2894201), wk =   0.0075495
        k(  109) = (   0.2941177   0.0339618   0.0000000), wk =   0.0075495
        k(  110) = (   0.2941177   0.0339618   0.0578840), wk =   0.0150991
        k(  111) = (   0.2941177   0.0339618   0.1157680), wk =   0.0150991
        k(  112) = (   0.2941177   0.0339618   0.1736521), wk =   0.0150991
        k(  113) = (   0.2941177   0.0339618   0.2315361), wk =   0.0150991
        k(  114) = (   0.2941177   0.0339618   0.2894201), wk =   0.0150991
        k(  115) = (   0.3529412   0.0679236   0.0000000), wk =   0.0075495
        k(  116) = (   0.3529412   0.0679236   0.0578840), wk =   0.0150991
        k(  117) = (   0.3529412   0.0679236   0.1157680), wk =   0.0150991
        k(  118) = (   0.3529412   0.0679236   0.1736521), wk =   0.0150991
        k(  119) = (   0.3529412   0.0679236   0.2315361), wk =   0.0150991
        k(  120) = (   0.3529412   0.0679236   0.2894201), wk =   0.0150991
        k(  121) = (   0.4117647   0.1018853   0.0000000), wk =   0.0075495
        k(  122) = (   0.4117647   0.1018853   0.0578840), wk =   0.0150991
        k(  123) = (   0.4117647   0.1018853   0.1157680), wk =   0.0150991
        k(  124) = (   0.4117647   0.1018853   0.1736521), wk =   0.0150991
        k(  125) = (   0.4117647   0.1018853   0.2315361), wk =   0.0150991
        k(  126) = (   0.4117647   0.1018853   0.2894201), wk =   0.0150991
        k(  127) = (   0.4705883   0.1358471   0.0000000), wk =   0.0075495
        k(  128) = (   0.4705883   0.1358471   0.0578840), wk =   0.0150991
        k(  129) = (   0.4705883   0.1358471   0.1157680), wk =   0.0150991
        k(  130) = (   0.4705883   0.1358471   0.1736521), wk =   0.0150991
        k(  131) = (   0.4705883   0.1358471   0.2315361), wk =   0.0150991
        k(  132) = (   0.4705883   0.1358471   0.2894201), wk =   0.0150991
        k(  133) = (   0.5294118   0.1698089   0.0000000), wk =   0.0075495
        k(  134) = (   0.5294118   0.1698089   0.0578840), wk =   0.0150991
        k(  135) = (   0.5294118   0.1698089   0.1157680), wk =   0.0150991
        k(  136) = (   0.5294118   0.1698089   0.1736521), wk =   0.0150991
        k(  137) = (   0.5294118   0.1698089   0.2315361), wk =   0.0150991
        k(  138) = (   0.5294118   0.1698089   0.2894201), wk =   0.0150991
        k(  139) = (   0.3529412   0.0000000   0.0000000), wk =   0.0037748
        k(  140) = (   0.3529412   0.0000000   0.0578840), wk =   0.0075495
        k(  141) = (   0.3529412   0.0000000   0.1157680), wk =   0.0075495
        k(  142) = (   0.3529412   0.0000000   0.1736521), wk =   0.0075495
        k(  143) = (   0.3529412   0.0000000   0.2315361), wk =   0.0075495
        k(  144) = (   0.3529412   0.0000000   0.2894201), wk =   0.0075495
        k(  145) = (   0.4117647   0.0339618   0.0000000), wk =   0.0075495
        k(  146) = (   0.4117647   0.0339618   0.0578840), wk =   0.0150991
        k(  147) = (   0.4117647   0.0339618   0.1157680), wk =   0.0150991
        k(  148) = (   0.4117647   0.0339618   0.1736521), wk =   0.0150991
        k(  149) = (   0.4117647   0.0339618   0.2315361), wk =   0.0150991
        k(  150) = (   0.4117647   0.0339618   0.2894201), wk =   0.0150991
        k(  151) = (   0.4705883   0.0679236   0.0000000), wk =   0.0075495
        k(  152) = (   0.4705883   0.0679236   0.0578840), wk =   0.0150991
        k(  153) = (   0.4705883   0.0679236   0.1157680), wk =   0.0150991
        k(  154) = (   0.4705883   0.0679236   0.1736521), wk =   0.0150991
        k(  155) = (   0.4705883   0.0679236   0.2315361), wk =   0.0150991
        k(  156) = (   0.4705883   0.0679236   0.2894201), wk =   0.0150991
        k(  157) = (   0.5294118   0.1018853   0.0000000), wk =   0.0075495
        k(  158) = (   0.5294118   0.1018853   0.0578840), wk =   0.0150991
        k(  159) = (   0.5294118   0.1018853   0.1157680), wk =   0.0150991
        k(  160) = (   0.5294118   0.1018853   0.1736521), wk =   0.0150991
        k(  161) = (   0.5294118   0.1018853   0.2315361), wk =   0.0150991
        k(  162) = (   0.5294118   0.1018853   0.2894201), wk =   0.0150991
        k(  163) = (   0.5882353   0.1358471   0.0000000), wk =   0.0037748
        k(  164) = (   0.5882353   0.1358471   0.0578840), wk =   0.0075495
        k(  165) = (   0.5882353   0.1358471   0.1157680), wk =   0.0075495
        k(  166) = (   0.5882353   0.1358471   0.1736521), wk =   0.0075495
        k(  167) = (   0.5882353   0.1358471   0.2315361), wk =   0.0075495
        k(  168) = (   0.5882353   0.1358471   0.2894201), wk =   0.0075495
        k(  169) = (   0.4705883   0.0000000   0.0000000), wk =   0.0037748
        k(  170) = (   0.4705883   0.0000000   0.0578840), wk =   0.0075495
        k(  171) = (   0.4705883   0.0000000   0.1157680), wk =   0.0075495
        k(  172) = (   0.4705883   0.0000000   0.1736521), wk =   0.0075495
        k(  173) = (   0.4705883   0.0000000   0.2315361), wk =   0.0075495
        k(  174) = (   0.4705883   0.0000000   0.2894201), wk =   0.0075495
        k(  175) = (   0.5294118   0.0339618   0.0000000), wk =   0.0075495
        k(  176) = (   0.5294118   0.0339618   0.0578840), wk =   0.0150991
        k(  177) = (   0.5294118   0.0339618   0.1157680), wk =   0.0150991
        k(  178) = (   0.5294118   0.0339618   0.1736521), wk =   0.0150991
        k(  179) = (   0.5294118   0.0339618   0.2315361), wk =   0.0150991
        k(  180) = (   0.5294118   0.0339618   0.2894201), wk =   0.0150991
        k(  181) = (   0.5882353   0.0679236   0.0000000), wk =   0.0075495
        k(  182) = (   0.5882353   0.0679236   0.0578840), wk =   0.0150991
        k(  183) = (   0.5882353   0.0679236   0.1157680), wk =   0.0150991
        k(  184) = (   0.5882353   0.0679236   0.1736521), wk =   0.0150991
        k(  185) = (   0.5882353   0.0679236   0.2315361), wk =   0.0150991
        k(  186) = (   0.5882353   0.0679236   0.2894201), wk =   0.0150991
        k(  187) = (   0.5882353   0.0000000   0.0000000), wk =   0.0037748
        k(  188) = (   0.5882353   0.0000000   0.0578840), wk =   0.0075495
        k(  189) = (   0.5882353   0.0000000   0.1157680), wk =   0.0075495
        k(  190) = (   0.5882353   0.0000000   0.1736521), wk =   0.0075495
        k(  191) = (   0.5882353   0.0000000   0.2315361), wk =   0.0075495
        k(  192) = (   0.5882353   0.0000000   0.2894201), wk =   0.0075495
        k(  193) = (   0.6470589   0.0339618   0.0000000), wk =   0.0037748
        k(  194) = (   0.6470589   0.0339618   0.0578840), wk =   0.0075495
        k(  195) = (   0.6470589   0.0339618   0.1157680), wk =   0.0075495
        k(  196) = (   0.6470589   0.0339618   0.1736521), wk =   0.0075495
        k(  197) = (   0.6470589   0.0339618   0.2315361), wk =   0.0075495
        k(  198) = (   0.6470589   0.0339618   0.2894201), wk =   0.0075495

                       cryst. coord.
        k(    1) = (   0.0000000   0.0000000   0.0000000), wk =   0.0006291
        k(    2) = (   0.0000000   0.0000000   0.0909091), wk =   0.0012583
        k(    3) = (   0.0000000   0.0000000   0.1818182), wk =   0.0012583
        k(    4) = (   0.0000000   0.0000000   0.2727273), wk =   0.0012583
        k(    5) = (   0.0000000   0.0000000   0.3636364), wk =   0.0012583
        k(    6) = (   0.0000000   0.0000000   0.4545455), wk =   0.0012583
        k(    7) = (   0.0000000   0.0588235   0.0000000), wk =   0.0037748
        k(    8) = (   0.0000000   0.0588235   0.0909091), wk =   0.0075495
        k(    9) = (   0.0000000   0.0588235   0.1818182), wk =   0.0075495
        k(   10) = (   0.0000000   0.0588235   0.2727273), wk =   0.0075495
        k(   11) = (   0.0000000   0.0588235   0.3636364), wk =   0.0075495
        k(   12) = (   0.0000000   0.0588235   0.4545455), wk =   0.0075495
        k(   13) = (   0.0000000   0.1176471   0.0000000), wk =   0.0037748
        k(   14) = (   0.0000000   0.1176471   0.0909091), wk =   0.0075495
        k(   15) = (   0.0000000   0.1176471   0.1818182), wk =   0.0075495
        k(   16) = (   0.0000000   0.1176471   0.2727273), wk =   0.0075495
        k(   17) = (   0.0000000   0.1176471   0.3636364), wk =   0.0075495
        k(   18) = (   0.0000000   0.1176471   0.4545455), wk =   0.0075495
        k(   19) = (   0.0000000   0.1764706   0.0000000), wk =   0.0037748
        k(   20) = (   0.0000000   0.1764706   0.0909091), wk =   0.0075495
        k(   21) = (   0.0000000   0.1764706   0.1818182), wk =   0.0075495
        k(   22) = (   0.0000000   0.1764706   0.2727273), wk =   0.0075495
        k(   23) = (   0.0000000   0.1764706   0.3636364), wk =   0.0075495
        k(   24) = (   0.0000000   0.1764706   0.4545455), wk =   0.0075495
        k(   25) = (   0.0000000   0.2352941   0.0000000), wk =   0.0037748
        k(   26) = (   0.0000000   0.2352941   0.0909091), wk =   0.0075495
        k(   27) = (   0.0000000   0.2352941   0.1818182), wk =   0.0075495
        k(   28) = (   0.0000000   0.2352941   0.2727273), wk =   0.0075495
        k(   29) = (   0.0000000   0.2352941   0.3636364), wk =   0.0075495
        k(   30) = (   0.0000000   0.2352941   0.4545455), wk =   0.0075495
        k(   31) = (   0.0000000   0.2941176   0.0000000), wk =   0.0037748
        k(   32) = (   0.0000000   0.2941176   0.0909091), wk =   0.0075495
        k(   33) = (   0.0000000   0.2941176   0.1818182), wk =   0.0075495
        k(   34) = (   0.0000000   0.2941176   0.2727273), wk =   0.0075495
        k(   35) = (   0.0000000   0.2941176   0.3636364), wk =   0.0075495
        k(   36) = (   0.0000000   0.2941176   0.4545455), wk =   0.0075495
        k(   37) = (   0.0000000   0.3529412   0.0000000), wk =   0.0037748
        k(   38) = (   0.0000000   0.3529412   0.0909091), wk =   0.0075495
        k(   39) = (   0.0000000   0.3529412   0.1818182), wk =   0.0075495
        k(   40) = (   0.0000000   0.3529412   0.2727273), wk =   0.0075495
        k(   41) = (   0.0000000   0.3529412   0.3636364), wk =   0.0075495
        k(   42) = (   0.0000000   0.3529412   0.4545455), wk =   0.0075495
        k(   43) = (   0.0000000   0.4117647   0.0000000), wk =   0.0037748
        k(   44) = (   0.0000000   0.4117647   0.0909091), wk =   0.0075495
        k(   45) = (   0.0000000   0.4117647   0.1818182), wk =   0.0075495
        k(   46) = (   0.0000000   0.4117647   0.2727273), wk =   0.0075495
        k(   47) = (   0.0000000   0.4117647   0.3636364), wk =   0.0075495
        k(   48) = (   0.0000000   0.4117647   0.4545455), wk =   0.0075495
        k(   49) = (   0.0000000   0.4705882   0.0000000), wk =   0.0037748
        k(   50) = (   0.0000000   0.4705882   0.0909091), wk =   0.0075495
        k(   51) = (   0.0000000   0.4705882   0.1818182), wk =   0.0075495
        k(   52) = (   0.0000000   0.4705882   0.2727273), wk =   0.0075495
        k(   53) = (   0.0000000   0.4705882   0.3636364), wk =   0.0075495
        k(   54) = (   0.0000000   0.4705882   0.4545455), wk =   0.0075495
        k(   55) = (   0.0588235   0.0588235   0.0000000), wk =   0.0037748
        k(   56) = (   0.0588235   0.0588235   0.0909091), wk =   0.0075495
        k(   57) = (   0.0588235   0.0588235   0.1818182), wk =   0.0075495
        k(   58) = (   0.0588235   0.0588235   0.2727273), wk =   0.0075495
        k(   59) = (   0.0588235   0.0588235   0.3636364), wk =   0.0075495
        k(   60) = (   0.0588235   0.0588235   0.4545455), wk =   0.0075495
        k(   61) = (   0.0588235   0.1176471   0.0000000), wk =   0.0075495
        k(   62) = (   0.0588235   0.1176471   0.0909091), wk =   0.0150991
        k(   63) = (   0.0588235   0.1176471   0.1818182), wk =   0.0150991
        k(   64) = (   0.0588235   0.1176471   0.2727273), wk =   0.0150991
        k(   65) = (   0.0588235   0.1176471   0.3636364), wk =   0.0150991
        k(   66) = (   0.0588235   0.1176471   0.4545455), wk =   0.0150991
        k(   67) = (   0.0588235   0.1764706   0.0000000), wk =   0.0075495
        k(   68) = (   0.0588235   0.1764706   0.0909091), wk =   0.0150991
        k(   69) = (   0.0588235   0.1764706   0.1818182), wk =   0.0150991
        k(   70) = (   0.0588235   0.1764706   0.2727273), wk =   0.0150991
        k(   71) = (   0.0588235   0.1764706   0.3636364), wk =   0.0150991
        k(   72) = (   0.0588235   0.1764706   0.4545455), wk =   0.0150991
        k(   73) = (   0.0588235   0.2352941   0.0000000), wk =   0.0075495
        k(   74) = (   0.0588235   0.2352941   0.0909091), wk =   0.0150991
        k(   75) = (   0.0588235   0.2352941   0.1818182), wk =   0.0150991
        k(   76) = (   0.0588235   0.2352941   0.2727273), wk =   0.0150991
        k(   77) = (   0.0588235   0.2352941   0.3636364), wk =   0.0150991
        k(   78) = (   0.0588235   0.2352941   0.4545455), wk =   0.0150991
        k(   79) = (   0.0588235   0.2941176   0.0000000), wk =   0.0075495
        k(   80) = (   0.0588235   0.2941176   0.0909091), wk =   0.0150991
        k(   81) = (   0.0588235   0.2941176   0.1818182), wk =   0.0150991
        k(   82) = (   0.0588235   0.2941176   0.2727273), wk =   0.0150991
        k(   83) = (   0.0588235   0.2941176   0.3636364), wk =   0.0150991
        k(   84) = (   0.0588235   0.2941176   0.4545455), wk =   0.0150991
        k(   85) = (   0.0588235   0.3529412   0.0000000), wk =   0.0075495
        k(   86) = (   0.0588235   0.3529412   0.0909091), wk =   0.0150991
        k(   87) = (   0.0588235   0.3529412   0.1818182), wk =   0.0150991
        k(   88) = (   0.0588235   0.3529412   0.2727273), wk =   0.0150991
        k(   89) = (   0.0588235   0.3529412   0.3636364), wk =   0.0150991
        k(   90) = (   0.0588235   0.3529412   0.4545455), wk =   0.0150991
        k(   91) = (   0.0588235   0.4117647   0.0000000), wk =   0.0075495
        k(   92) = (   0.0588235   0.4117647   0.0909091), wk =   0.0150991
        k(   93) = (   0.0588235   0.4117647   0.1818182), wk =   0.0150991
        k(   94) = (   0.0588235   0.4117647   0.2727273), wk =   0.0150991
        k(   95) = (   0.0588235   0.4117647   0.3636364), wk =   0.0150991
        k(   96) = (   0.0588235   0.4117647   0.4545455), wk =   0.0150991
        k(   97) = (   0.0588235   0.4705882   0.0000000), wk =   0.0037748
        k(   98) = (   0.0588235   0.4705882   0.0909091), wk =   0.0075495
        k(   99) = (   0.0588235   0.4705882   0.1818182), wk =   0.0075495
        k(  100) = (   0.0588235   0.4705882   0.2727273), wk =   0.0075495
        k(  101) = (   0.0588235   0.4705882   0.3636364), wk =   0.0075495
        k(  102) = (   0.0588235   0.4705882   0.4545455), wk =   0.0075495
        k(  103) = (   0.1176471   0.1176471   0.0000000), wk =   0.0037748
        k(  104) = (   0.1176471   0.1176471   0.0909091), wk =   0.0075495
        k(  105) = (   0.1176471   0.1176471   0.1818182), wk =   0.0075495
        k(  106) = (   0.1176471   0.1176471   0.2727273), wk =   0.0075495
        k(  107) = (   0.1176471   0.1176471   0.3636364), wk =   0.0075495
        k(  108) = (   0.1176471   0.1176471   0.4545455), wk =   0.0075495
        k(  109) = (   0.1176471   0.1764706   0.0000000), wk =   0.0075495
        k(  110) = (   0.1176471   0.1764706   0.0909091), wk =   0.0150991
        k(  111) = (   0.1176471   0.1764706   0.1818182), wk =   0.0150991
        k(  112) = (   0.1176471   0.1764706   0.2727273), wk =   0.0150991
        k(  113) = (   0.1176471   0.1764706   0.3636364), wk =   0.0150991
        k(  114) = (   0.1176471   0.1764706   0.4545455), wk =   0.0150991
        k(  115) = (   0.1176471   0.2352941   0.0000000), wk =   0.0075495
        k(  116) = (   0.1176471   0.2352941   0.0909091), wk =   0.0150991
        k(  117) = (   0.1176471   0.2352941   0.1818182), wk =   0.0150991
        k(  118) = (   0.1176471   0.2352941   0.2727273), wk =   0.0150991
        k(  119) = (   0.1176471   0.2352941   0.3636364), wk =   0.0150991
        k(  120) = (   0.1176471   0.2352941   0.4545455), wk =   0.0150991
        k(  121) = (   0.1176471   0.2941176   0.0000000), wk =   0.0075495
        k(  122) = (   0.1176471   0.2941176   0.0909091), wk =   0.0150991
        k(  123) = (   0.1176471   0.2941176   0.1818182), wk =   0.0150991
        k(  124) = (   0.1176471   0.2941176   0.2727273), wk =   0.0150991
        k(  125) = (   0.1176471   0.2941176   0.3636364), wk =   0.0150991
        k(  126) = (   0.1176471   0.2941176   0.4545455), wk =   0.0150991
        k(  127) = (   0.1176471   0.3529412   0.0000000), wk =   0.0075495
        k(  128) = (   0.1176471   0.3529412   0.0909091), wk =   0.0150991
        k(  129) = (   0.1176471   0.3529412   0.1818182), wk =   0.0150991
        k(  130) = (   0.1176471   0.3529412   0.2727273), wk =   0.0150991
        k(  131) = (   0.1176471   0.3529412   0.3636364), wk =   0.0150991
        k(  132) = (   0.1176471   0.3529412   0.4545455), wk =   0.0150991
        k(  133) = (   0.1176471   0.4117647   0.0000000), wk =   0.0075495
        k(  134) = (   0.1176471   0.4117647   0.0909091), wk =   0.0150991
        k(  135) = (   0.1176471   0.4117647   0.1818182), wk =   0.0150991
        k(  136) = (   0.1176471   0.4117647   0.2727273), wk =   0.0150991
        k(  137) = (   0.1176471   0.4117647   0.3636364), wk =   0.0150991
        k(  138) = (   0.1176471   0.4117647   0.4545455), wk =   0.0150991
        k(  139) = (   0.1764706   0.1764706   0.0000000), wk =   0.0037748
        k(  140) = (   0.1764706   0.1764706   0.0909091), wk =   0.0075495
        k(  141) = (   0.1764706   0.1764706   0.1818182), wk =   0.0075495
        k(  142) = (   0.1764706   0.1764706   0.2727273), wk =   0.0075495
        k(  143) = (   0.1764706   0.1764706   0.3636364), wk =   0.0075495
        k(  144) = (   0.1764706   0.1764706   0.4545455), wk =   0.0075495
        k(  145) = (   0.1764706   0.2352941   0.0000000), wk =   0.0075495
        k(  146) = (   0.1764706   0.2352941   0.0909091), wk =   0.0150991
        k(  147) = (   0.1764706   0.2352941   0.1818182), wk =   0.0150991
        k(  148) = (   0.1764706   0.2352941   0.2727273), wk =   0.0150991
        k(  149) = (   0.1764706   0.2352941   0.3636364), wk =   0.0150991
        k(  150) = (   0.1764706   0.2352941   0.4545455), wk =   0.0150991
        k(  151) = (   0.1764706   0.2941176   0.0000000), wk =   0.0075495
        k(  152) = (   0.1764706   0.2941176   0.0909091), wk =   0.0150991
        k(  153) = (   0.1764706   0.2941176   0.1818182), wk =   0.0150991
        k(  154) = (   0.1764706   0.2941176   0.2727273), wk =   0.0150991
        k(  155) = (   0.1764706   0.2941176   0.3636364), wk =   0.0150991
        k(  156) = (   0.1764706   0.2941176   0.4545455), wk =   0.0150991
        k(  157) = (   0.1764706   0.3529412   0.0000000), wk =   0.0075495
        k(  158) = (   0.1764706   0.3529412   0.0909091), wk =   0.0150991
        k(  159) = (   0.1764706   0.3529412   0.1818182), wk =   0.0150991
        k(  160) = (   0.1764706   0.3529412   0.2727273), wk =   0.0150991
        k(  161) = (   0.1764706   0.3529412   0.3636364), wk =   0.0150991
        k(  162) = (   0.1764706   0.3529412   0.4545455), wk =   0.0150991
        k(  163) = (   0.1764706   0.4117647   0.0000000), wk =   0.0037748
        k(  164) = (   0.1764706   0.4117647   0.0909091), wk =   0.0075495
        k(  165) = (   0.1764706   0.4117647   0.1818182), wk =   0.0075495
        k(  166) = (   0.1764706   0.4117647   0.2727273), wk =   0.0075495
        k(  167) = (   0.1764706   0.4117647   0.3636364), wk =   0.0075495
        k(  168) = (   0.1764706   0.4117647   0.4545455), wk =   0.0075495
        k(  169) = (   0.2352941   0.2352941   0.0000000), wk =   0.0037748
        k(  170) = (   0.2352941   0.2352941   0.0909091), wk =   0.0075495
        k(  171) = (   0.2352941   0.2352941   0.1818182), wk =   0.0075495
        k(  172) = (   0.2352941   0.2352941   0.2727273), wk =   0.0075495
        k(  173) = (   0.2352941   0.2352941   0.3636364), wk =   0.0075495
        k(  174) = (   0.2352941   0.2352941   0.4545455), wk =   0.0075495
        k(  175) = (   0.2352941   0.2941176   0.0000000), wk =   0.0075495
        k(  176) = (   0.2352941   0.2941176   0.0909091), wk =   0.0150991
        k(  177) = (   0.2352941   0.2941176   0.1818182), wk =   0.0150991
        k(  178) = (   0.2352941   0.2941176   0.2727273), wk =   0.0150991
        k(  179) = (   0.2352941   0.2941176   0.3636364), wk =   0.0150991
        k(  180) = (   0.2352941   0.2941176   0.4545455), wk =   0.0150991
        k(  181) = (   0.2352941   0.3529412   0.0000000), wk =   0.0075495
        k(  182) = (   0.2352941   0.3529412   0.0909091), wk =   0.0150991
        k(  183) = (   0.2352941   0.3529412   0.1818182), wk =   0.0150991
        k(  184) = (   0.2352941   0.3529412   0.2727273), wk =   0.0150991
        k(  185) = (   0.2352941   0.3529412   0.3636364), wk =   0.0150991
        k(  186) = (   0.2352941   0.3529412   0.4545455), wk =   0.0150991
        k(  187) = (   0.2941176   0.2941176   0.0000000), wk =   0.0037748
        k(  188) = (   0.2941176   0.2941176   0.0909091), wk =   0.0075495
        k(  189) = (   0.2941176   0.2941176   0.1818182), wk =   0.0075495
        k(  190) = (   0.2941176   0.2941176   0.2727273), wk =   0.0075495
        k(  191) = (   0.2941176   0.2941176   0.3636364), wk =   0.0075495
        k(  192) = (   0.2941176   0.2941176   0.4545455), wk =   0.0075495
        k(  193) = (   0.2941176   0.3529412   0.0000000), wk =   0.0037748
        k(  194) = (   0.2941176   0.3529412   0.0909091), wk =   0.0075495
        k(  195) = (   0.2941176   0.3529412   0.1818182), wk =   0.0075495
        k(  196) = (   0.2941176   0.3529412   0.2727273), wk =   0.0075495
        k(  197) = (   0.2941176   0.3529412   0.3636364), wk =   0.0075495
        k(  198) = (   0.2941176   0.3529412   0.4545455), wk =   0.0075495

     Dense  grid:    46773 G-vectors     FFT dimensions: (  45,  45,  64)

     Smooth grid:    16551 G-vectors     FFT dimensions: (  30,  30,  48)

     Dynamical RAM for                 wfc:       0.24 MB

     Dynamical RAM for     wfc (w. buffer):       0.24 MB

     Dynamical RAM for           str. fact:       0.36 MB

     Dynamical RAM for           local pot:       0.00 MB

     Dynamical RAM for          nlocal pot:       0.27 MB

     Dynamical RAM for                qrad:       1.51 MB

     Dynamical RAM for          rho,v,vnew:       1.28 MB

     Dynamical RAM for           G-vectors:       0.70 MB

     Dynamical RAM for          h,s,v(r/c):       0.16 MB

     Dynamical RAM for          <psi|beta>:       0.02 MB

     Dynamical RAM for                 psi:       0.47 MB

     Dynamical RAM for                hpsi:       0.47 MB

     Dynamical RAM for                spsi:       0.47 MB

     Dynamical RAM for      wfcinit/wfcrot:       0.49 MB

     Dynamical RAM for           addusdens:       9.63 MB

     Estimated static dynamical RAM per process >       6.12 MB

     Estimated max dynamical RAM per process >      15.75 MB

     Estimated total dynamical RAM >      63.00 MB

     The potential is recalculated from file :
     ./pwscf.save/charge-density

     Starting wfcs are   18 randomized atomic wfcs +   12 random wfcs

     Band Structure Calculation
     Davidson diagonalization with overlap

     Computing kpt #:     1  of   198
     total cpu time spent up to now is        4.3 secs

     Computing kpt #:     2  of   198
     total cpu time spent up to now is        7.4 secs

     Computing kpt #:     3  of   198
     total cpu time spent up to now is       10.5 secs

     Computing kpt #:     4  of   198
     total cpu time spent up to now is       13.8 secs

     Computing kpt #:     5  of   198
     total cpu time spent up to now is       17.0 secs

     Computing kpt #:     6  of   198
     total cpu time spent up to now is       20.4 secs

     Computing kpt #:     7  of   198
     total cpu time spent up to now is       24.0 secs

     Computing kpt #:     8  of   198
     total cpu time spent up to now is       28.0 secs

     Computing kpt #:     9  of   198
     total cpu time spent up to now is       31.4 secs

     Computing kpt #:    10  of   198
     total cpu time spent up to now is       34.7 secs

     Computing kpt #:    11  of   198
     total cpu time spent up to now is       38.0 secs

     Computing kpt #:    12  of   198
     total cpu time spent up to now is       41.3 secs

     Computing kpt #:    13  of   198
     total cpu time spent up to now is       44.4 secs

     Computing kpt #:    14  of   198
     total cpu time spent up to now is       47.7 secs

     Computing kpt #:    15  of   198
     total cpu time spent up to now is       51.0 secs

     Computing kpt #:    16  of   198
     total cpu time spent up to now is       54.7 secs

     Computing kpt #:    17  of   198
     total cpu time spent up to now is       58.1 secs

     Computing kpt #:    18  of   198
     total cpu time spent up to now is       61.8 secs

     Computing kpt #:    19  of   198
     total cpu time spent up to now is       65.0 secs

     Computing kpt #:    20  of   198
     total cpu time spent up to now is       68.3 secs

     Computing kpt #:    21  of   198
     total cpu time spent up to now is       71.9 secs

     Computing kpt #:    22  of   198
     total cpu time spent up to now is       75.6 secs

     Computing kpt #:    23  of   198
     total cpu time spent up to now is       79.1 secs

     Computing kpt #:    24  of   198
     total cpu time spent up to now is       82.8 secs

     Computing kpt #:    25  of   198
     total cpu time spent up to now is       86.5 secs

     Computing kpt #:    26  of   198
     total cpu time spent up to now is       90.3 secs

     Computing kpt #:    27  of   198
     total cpu time spent up to now is       93.8 secs

     Computing kpt #:    28  of   198
     total cpu time spent up to now is       97.6 secs

     Computing kpt #:    29  of   198
     total cpu time spent up to now is      101.2 secs

     Computing kpt #:    30  of   198
     total cpu time spent up to now is      104.2 secs

     Computing kpt #:    31  of   198
     total cpu time spent up to now is      108.1 secs

     Computing kpt #:    32  of   198
     total cpu time spent up to now is      111.9 secs

     Computing kpt #:    33  of   198
     total cpu time spent up to now is      115.6 secs

     Computing kpt #:    34  of   198
     total cpu time spent up to now is      119.4 secs

     Computing kpt #:    35  of   198
     total cpu time spent up to now is      122.6 secs

     Computing kpt #:    36  of   198
     total cpu time spent up to now is      126.1 secs

     Computing kpt #:    37  of   198
     total cpu time spent up to now is      129.8 secs

     Computing kpt #:    38  of   198
     total cpu time spent up to now is      133.8 secs

     Computing kpt #:    39  of   198
     total cpu time spent up to now is      137.8 secs

     Computing kpt #:    40  of   198
     total cpu time spent up to now is      141.5 secs

     Computing kpt #:    41  of   198
     total cpu time spent up to now is      144.8 secs

     Computing kpt #:    42  of   198
     total cpu time spent up to now is      148.1 secs

     Computing kpt #:    43  of   198
     total cpu time spent up to now is      151.4 secs

     Computing kpt #:    44  of   198
     total cpu time spent up to now is      154.7 secs

     Computing kpt #:    45  of   198
     total cpu time spent up to now is      158.6 secs

     Computing kpt #:    46  of   198
     total cpu time spent up to now is      162.5 secs

     Computing kpt #:    47  of   198
     total cpu time spent up to now is      166.0 secs

     Computing kpt #:    48  of   198
     total cpu time spent up to now is      169.2 secs

     Computing kpt #:    49  of   198
     total cpu time spent up to now is      172.8 secs

     Computing kpt #:    50  of   198
     total cpu time spent up to now is      176.3 secs

     Computing kpt #:    51  of   198
     total cpu time spent up to now is      179.6 secs

     Computing kpt #:    52  of   198
     total cpu time spent up to now is      183.2 secs

     Computing kpt #:    53  of   198
     total cpu time spent up to now is      186.7 secs

     Computing kpt #:    54  of   198
     total cpu time spent up to now is      189.9 secs

     Computing kpt #:    55  of   198
     total cpu time spent up to now is      193.4 secs

     Computing kpt #:    56  of   198
     total cpu time spent up to now is      196.6 secs

     Computing kpt #:    57  of   198
     total cpu time spent up to now is      199.9 secs

     Computing kpt #:    58  of   198
     total cpu time spent up to now is      203.2 secs

     Computing kpt #:    59  of   198
     total cpu time spent up to now is      206.5 secs

     Computing kpt #:    60  of   198
     total cpu time spent up to now is      209.4 secs

     Computing kpt #:    61  of   198
     total cpu time spent up to now is      212.4 secs

     Computing kpt #:    62  of   198
     total cpu time spent up to now is      215.8 secs

     Computing kpt #:    63  of   198
     total cpu time spent up to now is      219.2 secs

     Computing kpt #:    64  of   198
     total cpu time spent up to now is      222.2 secs

     Computing kpt #:    65  of   198
     total cpu time spent up to now is      225.3 secs

     Computing kpt #:    66  of   198
     total cpu time spent up to now is      229.0 secs

     Computing kpt #:    67  of   198
     total cpu time spent up to now is      232.4 secs

     Computing kpt #:    68  of   198
     total cpu time spent up to now is      235.9 secs

     Computing kpt #:    69  of   198
     total cpu time spent up to now is      239.1 secs

     Computing kpt #:    70  of   198
     total cpu time spent up to now is      242.3 secs

     Computing kpt #:    71  of   198
     total cpu time spent up to now is      246.7 secs

     Computing kpt #:    72  of   198
     total cpu time spent up to now is      249.8 secs

     Computing kpt #:    73  of   198
     total cpu time spent up to now is      253.4 secs

     Computing kpt #:    74  of   198
     total cpu time spent up to now is      257.2 secs

     Computing kpt #:    75  of   198
     total cpu time spent up to now is      260.8 secs

     Computing kpt #:    76  of   198
     total cpu time spent up to now is      264.7 secs

     Computing kpt #:    77  of   198
     total cpu time spent up to now is      268.2 secs

     Computing kpt #:    78  of   198
     total cpu time spent up to now is      271.7 secs

     Computing kpt #:    79  of   198
     total cpu time spent up to now is      275.2 secs

     Computing kpt #:    80  of   198
     total cpu time spent up to now is      279.1 secs

     Computing kpt #:    81  of   198
     total cpu time spent up to now is      283.2 secs

     Computing kpt #:    82  of   198
     total cpu time spent up to now is      286.7 secs

     Computing kpt #:    83  of   198
     total cpu time spent up to now is      289.9 secs

     Computing kpt #:    84  of   198
     total cpu time spent up to now is      293.3 secs

     Computing kpt #:    85  of   198
     total cpu time spent up to now is      297.4 secs

     Computing kpt #:    86  of   198
     total cpu time spent up to now is      301.3 secs

     Computing kpt #:    87  of   198
     total cpu time spent up to now is      304.7 secs

     Computing kpt #:    88  of   198
     total cpu time spent up to now is      308.1 secs

     Computing kpt #:    89  of   198
     total cpu time spent up to now is      311.3 secs

     Computing kpt #:    90  of   198
     total cpu time spent up to now is      314.8 secs

     Computing kpt #:    91  of   198
     total cpu time spent up to now is      319.4 secs

     Computing kpt #:    92  of   198
     total cpu time spent up to now is      322.5 secs

     Computing kpt #:    93  of   198
     total cpu time spent up to now is      326.3 secs

     Computing kpt #:    94  of   198
     total cpu time spent up to now is      329.7 secs

     Computing kpt #:    95  of   198
     total cpu time spent up to now is      333.1 secs

     Computing kpt #:    96  of   198
     total cpu time spent up to now is      336.1 secs

     Computing kpt #:    97  of   198
     total cpu time spent up to now is      340.0 secs

     Computing kpt #:    98  of   198
     total cpu time spent up to now is      343.3 secs

     Computing kpt #:    99  of   198
     total cpu time spent up to now is      346.4 secs

     Computing kpt #:   100  of   198
     total cpu time spent up to now is      349.9 secs

     Computing kpt #:   101  of   198
     total cpu time spent up to now is      353.7 secs

     Computing kpt #:   102  of   198
     total cpu time spent up to now is      356.8 secs

     Computing kpt #:   103  of   198
     total cpu time spent up to now is      360.1 secs

     Computing kpt #:   104  of   198
     total cpu time spent up to now is      363.4 secs

     Computing kpt #:   105  of   198
     total cpu time spent up to now is      366.7 secs

     Computing kpt #:   106  of   198
     total cpu time spent up to now is      369.9 secs

     Computing kpt #:   107  of   198
     total cpu time spent up to now is      373.5 secs

     Computing kpt #:   108  of   198
     total cpu time spent up to now is      377.2 secs

     Computing kpt #:   109  of   198
     total cpu time spent up to now is      381.5 secs

     Computing kpt #:   110  of   198
     total cpu time spent up to now is      385.1 secs

     Computing kpt #:   111  of   198
     total cpu time spent up to now is      388.4 secs

     Computing kpt #:   112  of   198
     total cpu time spent up to now is      391.7 secs

     Computing kpt #:   113  of   198
     total cpu time spent up to now is      395.3 secs

     Computing kpt #:   114  of   198
     total cpu time spent up to now is      398.6 secs

     Computing kpt #:   115  of   198
     total cpu time spent up to now is      402.5 secs

     Computing kpt #:   116  of   198
     total cpu time spent up to now is      406.0 secs

     Computing kpt #:   117  of   198
     total cpu time spent up to now is      409.9 secs

     Computing kpt #:   118  of   198
     total cpu time spent up to now is      413.4 secs

     Computing kpt #:   119  of   198
     total cpu time spent up to now is      416.7 secs

     Computing kpt #:   120  of   198
     total cpu time spent up to now is      420.2 secs

     Computing kpt #:   121  of   198
     total cpu time spent up to now is      423.5 secs

     Computing kpt #:   122  of   198
     total cpu time spent up to now is      427.2 secs

     Computing kpt #:   123  of   198
     total cpu time spent up to now is      430.8 secs

     Computing kpt #:   124  of   198
     total cpu time spent up to now is      434.0 secs

     Computing kpt #:   125  of   198
     total cpu time spent up to now is      437.5 secs

     Computing kpt #:   126  of   198
     total cpu time spent up to now is      440.8 secs

     Computing kpt #:   127  of   198
     total cpu time spent up to now is      444.6 secs

     Computing kpt #:   128  of   198
     total cpu time spent up to now is      448.1 secs

     Computing kpt #:   129  of   198
     total cpu time spent up to now is      451.6 secs

     Computing kpt #:   130  of   198
     total cpu time spent up to now is      455.0 secs

     Computing kpt #:   131  of   198
     total cpu time spent up to now is      458.9 secs

     Computing kpt #:   132  of   198
     total cpu time spent up to now is      462.3 secs

     Computing kpt #:   133  of   198
     total cpu time spent up to now is      466.7 secs

     Computing kpt #:   134  of   198
     total cpu time spent up to now is      470.5 secs

     Computing kpt #:   135  of   198
     total cpu time spent up to now is      473.5 secs

     Computing kpt #:   136  of   198
     total cpu time spent up to now is      476.8 secs

     Computing kpt #:   137  of   198
     total cpu time spent up to now is      480.4 secs

     Computing kpt #:   138  of   198
     total cpu time spent up to now is      484.0 secs

     Computing kpt #:   139  of   198
     total cpu time spent up to now is      488.2 secs

     Computing kpt #:   140  of   198
     total cpu time spent up to now is      492.3 secs

     Computing kpt #:   141  of   198
     total cpu time spent up to now is      495.5 secs

     Computing kpt #:   142  of   198
     total cpu time spent up to now is      499.1 secs

     Computing kpt #:   143  of   198
     total cpu time spent up to now is      502.5 secs

     Computing kpt #:   144  of   198
     total cpu time spent up to now is      506.0 secs

     Computing kpt #:   145  of   198
     total cpu time spent up to now is      509.8 secs

     Computing kpt #:   146  of   198
     total cpu time spent up to now is      512.9 secs

     Computing kpt #:   147  of   198
     total cpu time spent up to now is      516.5 secs

     Computing kpt #:   148  of   198
     total cpu time spent up to now is      520.1 secs

     Computing kpt #:   149  of   198
     total cpu time spent up to now is      523.1 secs

     Computing kpt #:   150  of   198
     total cpu time spent up to now is      526.8 secs

     Computing kpt #:   151  of   198
     total cpu time spent up to now is      530.6 secs

     Computing kpt #:   152  of   198
     total cpu time spent up to now is      534.0 secs

     Computing kpt #:   153  of   198
     total cpu time spent up to now is      537.7 secs

     Computing kpt #:   154  of   198
     total cpu time spent up to now is      540.9 secs

     Computing kpt #:   155  of   198
     total cpu time spent up to now is      544.2 secs

     Computing kpt #:   156  of   198
     total cpu time spent up to now is      547.4 secs

     Computing kpt #:   157  of   198
     total cpu time spent up to now is      551.6 secs

     Computing kpt #:   158  of   198
     total cpu time spent up to now is      555.6 secs

     Computing kpt #:   159  of   198
     total cpu time spent up to now is      559.5 secs

     Computing kpt #:   160  of   198
     total cpu time spent up to now is      562.8 secs

     Computing kpt #:   161  of   198
     total cpu time spent up to now is      565.9 secs

     Computing kpt #:   162  of   198
     total cpu time spent up to now is      569.1 secs

     Computing kpt #:   163  of   198
     total cpu time spent up to now is      573.5 secs

     Computing kpt #:   164  of   198
     total cpu time spent up to now is      577.5 secs

     Computing kpt #:   165  of   198
     total cpu time spent up to now is      581.1 secs

     Computing kpt #:   166  of   198
     total cpu time spent up to now is      584.2 secs

     Computing kpt #:   167  of   198
     total cpu time spent up to now is      587.9 secs

     Computing kpt #:   168  of   198
     total cpu time spent up to now is      591.4 secs

     Computing kpt #:   169  of   198
     total cpu time spent up to now is      595.0 secs

     Computing kpt #:   170  of   198
     total cpu time spent up to now is      598.4 secs

     Computing kpt #:   171  of   198
     total cpu time spent up to now is      601.8 secs

     Computing kpt #:   172  of   198
     total cpu time spent up to now is      605.1 secs

     Computing kpt #:   173  of   198
     total cpu time spent up to now is      608.9 secs

     Computing kpt #:   174  of   198
     total cpu time spent up to now is      612.1 secs

     Computing kpt #:   175  of   198
     total cpu time spent up to now is      616.0 secs

     Computing kpt #:   176  of   198
     total cpu time spent up to now is      620.1 secs

     Computing kpt #:   177  of   198
     total cpu time spent up to now is      623.6 secs

     Computing kpt #:   178  of   198
     total cpu time spent up to now is      626.6 secs

     Computing kpt #:   179  of   198
     total cpu time spent up to now is      630.2 secs

     Computing kpt #:   180  of   198
     total cpu time spent up to now is      633.2 secs

     Computing kpt #:   181  of   198
     total cpu time spent up to now is      636.9 secs

     Computing kpt #:   182  of   198
     total cpu time spent up to now is      640.9 secs

     Computing kpt #:   183  of   198
     total cpu time spent up to now is      645.3 secs

     Computing kpt #:   184  of   198
     total cpu time spent up to now is      649.1 secs

     Computing kpt #:   185  of   198
     total cpu time spent up to now is      652.9 secs

     Computing kpt #:   186  of   198
     total cpu time spent up to now is      656.3 secs

     Computing kpt #:   187  of   198
     total cpu time spent up to now is      660.8 secs

     Computing kpt #:   188  of   198
     total cpu time spent up to now is      664.5 secs

     Computing kpt #:   189  of   198
     total cpu time spent up to now is      668.7 secs

     Computing kpt #:   190  of   198
     total cpu time spent up to now is      672.2 secs

     Computing kpt #:   191  of   198
     total cpu time spent up to now is      675.9 secs

     Computing kpt #:   192  of   198
     total cpu time spent up to now is      679.4 secs

     Computing kpt #:   193  of   198
     total cpu time spent up to now is      683.5 secs

     Computing kpt #:   194  of   198
     total cpu time spent up to now is      687.7 secs

     Computing kpt #:   195  of   198
     total cpu time spent up to now is      692.3 secs

     Computing kpt #:   196  of   198
     total cpu time spent up to now is      695.9 secs

     Computing kpt #:   197  of   198
     total cpu time spent up to now is      699.5 secs

     Computing kpt #:   198  of   198
     total cpu time spent up to now is      702.2 secs

     ethr =  5.00E-11,  avg # of iterations = 31.4

     total cpu time spent up to now is      702.2 secs

     End of band structure calculation

          k = 0.0000 0.0000 0.0000 (  2045 PWs)   bands (ev):

   -41.1447 -41.1005 -20.2707 -20.0335  -3.0179  -1.2826  -1.2825  -0.9598
    -0.9598  -0.8091   7.0978  11.3904  14.6395  17.9348  17.9348  19.0273
    19.0274  19.6944  23.2328  23.8238  23.8239  26.6249  26.6249  27.5298
    30.7383  30.7383  30.8178  33.0559  33.3882  33.3882

     occupation numbers 
     1.0000   1.0000   1.0000   1.0000   1.0000   1.0000   1.0000   1.0000
     1.0000   1.0000   0.0000   0.0000   0.0000   0.0000   0.0000   0.0000
     0.0000   0.0000   0.0000   0.0000   0.0000   0.0000   0.0000   0.0000
     0.0000   0.0000   0.0000   0.0000   0.0000   0.0000

          k = 0.0000 0.0000 0.0579 (  2057 PWs)   bands (ev):

   -41.1438 -41.1014 -20.2664 -20.0388  -2.9774  -1.2761  -1.2761  -0.9664
    -0.9664  -0.8600   7.1627  11.2214  14.7958  17.9354  17.9355  18.9791
    18.9792  19.4759  23.5326  23.9187  23.9187  26.6710  26.6710  27.4912
    30.7313  30.7313  30.9037  32.8474  33.3581  33.3581

     occupation numbers 
     1.0000   1.0000   1.0000   1.0000   1.0000   1.0000   1.0000   1.0000
     1.0000   1.0000   0.0000   0.0000   0.0000   0.0000   0.0000   0.0000
     0.0000   0.0000   0.0000   0.0000   0.0000   0.0000   0.0000   0.0000
     0.0000   0.0000   0.0000   0.0000   0.0000   0.0000

          k = 0.0000 0.0000 0.1158 (  2045 PWs)   bands (ev):

   -41.1412 -41.1040 -20.2535 -20.0540  -2.8583  -1.2571  -1.2571  -1.0063
    -0.9856  -0.9856   7.3529  10.7963  15.1839  17.9429  17.9429  18.8476
    18.8476  18.9761  24.1919  24.1919  24.2585  26.7619  26.7619  27.4101
    30.7455  30.7455  31.0781  32.3380  33.2575  33.2575

     occupation numbers 
     1.0000   1.0000   1.0000   1.0000   1.0000   1.0000   1.0000   1.0000
     1.0000   1.0000   0.0000   0.0000   0.0000   0.0000   0.0000   0.0000
     0.0000   0.0000   0.0000   0.0000   0.0000   0.0000   0.0000   0.0000
     0.0000   0.0000   0.0000   0.0000   0.0000   0.0000

          k = 0.0000 0.0000 0.1737 (  2062 PWs)   bands (ev):

   -41.1370 -41.1081 -20.2329 -20.0777  -2.6684  -1.2312  -1.2272  -1.2272
    -1.0158  -1.0158   7.6566  10.2471  15.6769  17.9702  17.9703  18.3960
    18.6647  18.6647  24.6123  24.6124  25.1538  26.7760  26.7760  27.3396
    30.8735  30.8735  31.1651  31.7333  33.0577  33.0577

     occupation numbers 
     1.0000   1.0000   1.0000   1.0000   1.0000   1.0000   1.0000   1.0000
     1.0000   1.0000   0.0000   0.0000   0.0000   0.0000   0.0000   0.0000
     0.0000   0.0000   0.0000   0.0000   0.0000   0.0000   0.0000   0.0000
     0.0000   0.0000   0.0000   0.0000   0.0000   0.0000

          k = 0.0000 0.0000 0.2315 (  2068 PWs)   bands (ev):

   -41.1317 -41.1134 -20.2059 -20.1075  -2.4200  -1.5108  -1.1888  -1.1887
    -1.0546  -1.0546   8.0578   9.6589  16.2016  17.8201  18.0315  18.0315
    18.4667  18.4668  25.1328  25.1329  26.0317  26.5972  26.5972  27.2772
    31.0690  31.1977  31.1977  31.2077  32.7228  32.7228

     occupation numbers 
     1.0000   1.0000   1.0000   1.0000   1.0000   1.0000   1.0000   1.0000
     1.0000   1.0000   0.0000   0.0000   0.0000   0.0000   0.0000   0.0000
     0.0000   0.0000   0.0000   0.0000   0.0000   0.0000   0.0000   0.0000
     0.0000   0.0000   0.0000   0.0000   0.0000   0.0000

          k = 0.0000 0.0000 0.2894 (  2080 PWs)   bands (ev):

   -41.1257 -41.1194 -20.1744 -20.1407  -2.1300  -1.8190  -1.1448  -1.1448
    -1.0988  -1.0988   8.5385   9.0795  16.7316  17.2674  18.1357  18.1357
    18.2838  18.2838  25.6918  25.6919  26.2109  26.2109  26.7269  27.1250
    30.9036  30.9080  31.6952  31.6953  32.2465  32.2466

     occupation numbers 
     1.0000   1.0000   1.0000   1.0000   1.0000   1.0000   1.0000   1.0000
     1.0000   1.0000   0.0000   0.0000   0.0000   0.0000   0.0000   0.0000
     0.0000   0.0000   0.0000   0.0000   0.0000   0.0000   0.0000   0.0000
     0.0000   0.0000   0.0000   0.0000   0.0000   0.0000

          k = 0.0588 0.0340 0.0000 (  2063 PWs)   bands (ev):

   -41.1435 -41.1000 -20.2661 -20.0324  -2.9995  -1.3205  -1.3043  -1.0134
    -0.9656  -0.8191   7.1840  11.4401  14.6026  17.7659  17.9465  19.0701
    19.0845  19.7151  22.4237  23.5682  24.5460  26.1480  27.0878  28.5111
    30.0314  30.7981  31.4886  32.6411  33.4062  33.5510

     occupation numbers 
     1.0000   1.0000   1.0000   1.0000   1.0000   1.0000   1.0000   1.0000
     1.0000   1.0000   0.0000   0.0000   0.0000   0.0000   0.0000   0.0000
     0.0000   0.0000   0.0000   0.0000   0.0000   0.0000   0.0000   0.0000
     0.0000   0.0000   0.0000   0.0000   0.0000   0.0000

          k = 0.0588 0.0340 0.0579 (  2050 PWs)   bands (ev):

   -41.1426 -41.1009 -20.2618 -20.0376  -2.9597  -1.3137  -1.2975  -1.0281
    -0.9726  -0.8601   7.2466  11.2680  14.7605  17.7607  17.9479  19.0215
    19.0318  19.5033  22.6690  23.6791  24.7009  26.1457  27.1109  28.4961
    30.1066  30.7965  31.5048  32.4185  33.3759  33.5772

     occupation numbers 
     1.0000   1.0000   1.0000   1.0000   1.0000   1.0000   1.0000   1.0000
     1.0000   1.0000   0.0000   0.0000   0.0000   0.0000   0.0000   0.0000
     0.0000   0.0000   0.0000   0.0000   0.0000   0.0000   0.0000   0.0000
     0.0000   0.0000   0.0000   0.0000   0.0000   0.0000

          k = 0.0588 0.0340 0.1158 (  2050 PWs)   bands (ev):

   -41.1401 -41.1035 -20.2491 -20.0526  -2.8431  -1.2941  -1.2777  -1.0955
    -0.9928  -0.9533   7.4308  10.8380  15.1484  17.7413  17.9571  18.8903
    18.8904  19.0463  23.2220  23.9944  25.1320  26.1470  27.1347  28.4559
    30.2774  30.8275  31.5507  31.9032  33.2758  33.5799

     occupation numbers 
     1.0000   1.0000   1.0000   1.0000   1.0000   1.0000   1.0000   1.0000
     1.0000   1.0000   0.0000   0.0000   0.0000   0.0000   0.0000   0.0000
     0.0000   0.0000   0.0000   0.0000   0.0000   0.0000   0.0000   0.0000
     0.0000   0.0000   0.0000   0.0000   0.0000   0.0000

          k = 0.0588 0.0340 0.1737 (  2054 PWs)   bands (ev):

   -41.1360 -41.1075 -20.2288 -20.0759  -2.6572  -1.2828  -1.2549  -1.2464
    -1.0246  -1.0221   7.7261  10.2865  15.6330  17.6784  17.9865  18.5854
    18.6976  18.7129  23.8601  24.4711  25.6458  26.2552  27.0485  28.3722
    30.4317  30.9789  31.2649  31.6826  33.0808  33.4869

     occupation numbers 
     1.0000   1.0000   1.0000   1.0000   1.0000   1.0000   1.0000   1.0000
     1.0000   1.0000   0.0000   0.0000   0.0000   0.0000   0.0000   0.0000
     0.0000   0.0000   0.0000   0.0000   0.0000   0.0000   0.0000   0.0000
     0.0000   0.0000   0.0000   0.0000   0.0000   0.0000

          k = 0.0588 0.0340 0.2315 (  2059 PWs)   bands (ev):

   -41.1308 -41.1127 -20.2023 -20.1053  -2.4147  -1.5365  -1.2206  -1.2061
    -1.0733  -1.0654   8.1180   9.6996  16.1367  17.4731  18.0496  18.3083
    18.4928  18.5274  24.4890  25.0545  25.7313  26.7612  26.8057  28.2125
    30.4381  30.7242  31.3143  31.9336  32.7616  33.2537

     occupation numbers 
     1.0000   1.0000   1.0000   1.0000   1.0000   1.0000   1.0000   1.0000
     1.0000   1.0000   0.0000   0.0000   0.0000   0.0000   0.0000   0.0000
     0.0000   0.0000   0.0000   0.0000   0.0000   0.0000   0.0000   0.0000
     0.0000   0.0000   0.0000   0.0000   0.0000   0.0000

          k = 0.0588 0.0340 0.2894 (  2064 PWs)   bands (ev):

   -41.1248 -41.1186 -20.1712 -20.1380  -2.1325  -1.8315  -1.1737  -1.1600
    -1.1237  -1.1118   8.5902   9.1245  16.6274  17.0886  18.1555  18.2732
    18.3059  18.3689  25.0536  25.4889  25.6821  26.2799  27.4668  27.9397
    30.3336  30.3866  31.7967  32.3153  32.3732  32.8616

     occupation numbers 
     1.0000   1.0000   1.0000   1.0000   1.0000   1.0000   1.0000   1.0000
     1.0000   1.0000   0.0000   0.0000   0.0000   0.0000   0.0000   0.0000
     0.0000   0.0000   0.0000   0.0000   0.0000   0.0000   0.0000   0.0000
     0.0000   0.0000   0.0000   0.0000   0.0000   0.0000

          k = 0.1176 0.0679 0.0000 (  2069 PWs)   bands (ev):

   -41.1401 -41.0986 -20.2527 -20.0294  -2.9460  -1.4349  -1.3645  -1.1548
    -0.9842  -0.8492   7.4324  11.5778  14.5082  17.3187  17.9868  19.1701
    19.2110  19.6943  21.5184  23.1437  24.6183  26.9428  28.1586  28.8259
    30.1069  30.9776  31.8193  32.5259  33.4613  33.6029

     occupation numbers 
     1.0000   1.0000   1.0000   1.0000   1.0000   1.0000   1.0000   1.0000
     1.0000   1.0000   0.0000   0.0000   0.0000   0.0000   0.0000   0.0000
     0.0000   0.0000   0.0000   0.0000   0.0000   0.0000   0.0000   0.0000
     0.0000   0.0000   0.0000   0.0000   0.0000   0.0000

          k = 0.1176 0.0679 0.0579 (  2057 PWs)   bands (ev):

   -41.1393 -41.0995 -20.2486 -20.0343  -2.9087  -1.4278  -1.3569  -1.1757
    -0.9921  -0.8785   7.4889  11.3971  14.6712  17.3056  17.9896  19.1228
    19.1481  19.4997  21.7715  23.2825  24.6947  26.9514  28.1261  28.9080
    30.1246  30.9960  31.6283  32.4863  33.4308  33.7237

     occupation numbers 
     1.0000   1.0000   1.0000   1.0000   1.0000   1.0000   1.0000   1.0000
     1.0000   1.0000   0.0000   0.0000   0.0000   0.0000   0.0000   0.0000
     0.0000   0.0000   0.0000   0.0000   0.0000   0.0000   0.0000   0.0000
     0.0000   0.0000   0.0000   0.0000   0.0000   0.0000

          k = 0.1176 0.0679 0.1158 (  2051 PWs)   bands (ev):

   -41.1368 -41.1019 -20.2364 -20.0487  -2.7995  -1.4092  -1.3348  -1.2447
    -1.0150  -0.9528   7.6562  10.9542  15.0592  17.2596  18.0021  18.9847
    18.9897  19.1328  22.3238  23.6703  24.8606  27.0543  27.9886  29.0650
    30.1771  31.0832  31.1373  32.4675  33.3325  33.9508

     occupation numbers 
     1.0000   1.0000   1.0000   1.0000   1.0000   1.0000   1.0000   1.0000
     1.0000   1.0000   0.0000   0.0000   0.0000   0.0000   0.0000   0.0000
     0.0000   0.0000   0.0000   0.0000   0.0000   0.0000   0.0000   0.0000
     0.0000   0.0000   0.0000   0.0000   0.0000   0.0000

          k = 0.1176 0.0679 0.1737 (  2053 PWs)   bands (ev):

   -41.1330 -41.1058 -20.2171 -20.0710  -2.6263  -1.4286  -1.3325  -1.2999
    -1.0509  -1.0390   7.9275  10.3979  15.5211  17.1596  18.0352  18.7561
    18.7721  18.8686  22.9614  24.2456  24.9668  27.3778  27.6701  29.1550
    30.1735  30.5807  31.2970  32.5427  33.1500  34.1326

     occupation numbers 
     1.0000   1.0000   1.0000   1.0000   1.0000   1.0000   1.0000   1.0000
     1.0000   1.0000   0.0000   0.0000   0.0000   0.0000   0.0000   0.0000
     0.0000   0.0000   0.0000   0.0000   0.0000   0.0000   0.0000   0.0000
     0.0000   0.0000   0.0000   0.0000   0.0000   0.0000

          k = 0.1176 0.0679 0.2315 (  2059 PWs)   bands (ev):

   -41.1280 -41.1107 -20.1917 -20.0991  -2.4021  -1.6212  -1.3048  -1.2549
    -1.1166  -1.0969   8.2930   9.8159  15.9710  16.9796  18.1012  18.5551
    18.5636  18.6956  23.5961  24.8981  24.9444  27.1456  27.9232  29.1545
    29.8683  30.2100  31.6463  32.8130  32.8713  34.1201

     occupation numbers 
     1.0000   1.0000   1.0000   1.0000   1.0000   1.0000   1.0000   1.0000
     1.0000   1.0000   0.0000   0.0000   0.0000   0.0000   0.0000   0.0000
     0.0000   0.0000   0.0000   0.0000   0.0000   0.0000   0.0000   0.0000
     0.0000   0.0000   0.0000   0.0000   0.0000   0.0000

          k = 0.1176 0.0679 0.2894 (  2056 PWs)   bands (ev):

   -41.1223 -41.1164 -20.1621 -20.1303  -2.1444  -1.8751  -1.2498  -1.2032
    -1.1863  -1.1491   8.7403   9.2543  16.3727  16.7129  18.2092  18.3623
    18.5090  18.5661  24.1715  24.6251  25.7058  26.4646  28.5405  29.0065
    29.6452  29.8527  32.0737  32.5020  33.2837  33.7933

     occupation numbers 
     1.0000   1.0000   1.0000   1.0000   1.0000   1.0000   1.0000   1.0000
     1.0000   1.0000   0.0000   0.0000   0.0000   0.0000   0.0000   0.0000
     0.0000   0.0000   0.0000   0.0000   0.0000   0.0000   0.0000   0.0000
     0.0000   0.0000   0.0000   0.0000   0.0000   0.0000

          k = 0.1765 0.1019 0.0000 (  2072 PWs)   bands (ev):

   -41.1349 -41.0967 -20.2316 -20.0254  -2.8639  -1.6220  -1.4507  -1.3371
    -1.0159  -0.8993   7.8171  11.7724  14.3826  16.7320  18.0600  19.2182
    19.2936  19.3882  21.0293  22.9317  24.4919  28.1680  28.5491  29.5167
    30.6129  31.1319  31.2725  33.4791  33.5641  34.0786

     occupation numbers 
     1.0000   1.0000   1.0000   1.0000   1.0000   1.0000   1.0000   1.0000
     1.0000   1.0000   0.0000   0.0000   0.0000   0.0000   0.0000   0.0000
     0.0000   0.0000   0.0000   0.0000   0.0000   0.0000   0.0000   0.0000
     0.0000   0.0000   0.0000   0.0000   0.0000   0.0000

          k = 0.1765 0.1019 0.0579 (  2063 PWs)   bands (ev):

   -41.1341 -41.0974 -20.2278 -20.0299  -2.8310  -1.6155  -1.4421  -1.3570
    -1.0250  -0.9203   7.8647  11.5791  14.5538  16.7166  18.0636  19.1160
    19.2250  19.3366  21.2190  23.0898  24.5146  28.1282  28.6902  29.3878
    30.5742  31.0142  31.3410  33.5003  33.5353  34.1652

     occupation numbers 
     1.0000   1.0000   1.0000   1.0000   1.0000   1.0000   1.0000   1.0000
     1.0000   1.0000   0.0000   0.0000   0.0000   0.0000   0.0000   0.0000
     0.0000   0.0000   0.0000   0.0000   0.0000   0.0000   0.0000   0.0000
     0.0000   0.0000   0.0000   0.0000   0.0000   0.0000

          k = 0.1765 0.1019 0.1158 (  2061 PWs)   bands (ev):

   -41.1319 -41.0997 -20.2166 -20.0432  -2.7352  -1.6039  -1.4171  -1.4097
    -1.0514  -0.9791   8.0070  11.1199  14.9414  16.6677  18.0780  18.8970
    19.0512  19.2321  21.6622  23.5284  24.5555  28.1323  28.9459  29.0093
    30.4055  30.8085  31.5309  33.4420  33.5700  34.3862

     occupation numbers 
     1.0000   1.0000   1.0000   1.0000   1.0000   1.0000   1.0000   1.0000
     1.0000   1.0000   0.0000   0.0000   0.0000   0.0000   0.0000   0.0000
     0.0000   0.0000   0.0000   0.0000   0.0000   0.0000   0.0000   0.0000
     0.0000   0.0000   0.0000   0.0000   0.0000   0.0000

          k = 0.1765 0.1019 0.1737 (  2049 PWs)   bands (ev):

   -41.1283 -41.1032 -20.1987 -20.0638  -2.5847  -1.6367  -1.4480  -1.3775
    -1.0928  -1.0640   8.2423  10.5614  15.3686  16.5796  18.1121  18.7174
    18.8329  19.0955  22.2112  24.1757  24.5344  28.2336  28.4074  29.1406
    30.1203  30.7180  31.8062  33.2754  33.6446  34.7272

     occupation numbers 
     1.0000   1.0000   1.0000   1.0000   1.0000   1.0000   1.0000   1.0000
     1.0000   1.0000   0.0000   0.0000   0.0000   0.0000   0.0000   0.0000
     0.0000   0.0000   0.0000   0.0000   0.0000   0.0000   0.0000   0.0000
     0.0000   0.0000   0.0000   0.0000   0.0000   0.0000

          k = 0.1765 0.1019 0.2315 (  2056 PWs)   bands (ev):

   -41.1237 -41.1078 -20.1753 -20.0898  -2.3933  -1.7704  -1.4145  -1.3262
    -1.1604  -1.1457   8.5671   9.9919  15.7441  16.4479  18.1769  18.6166
    18.6461  18.9420  22.8054  24.3477  24.9659  27.6323  28.4118  29.1305
    30.0214  30.6377  32.1252  33.0424  33.7585  34.9386

     occupation numbers 
     1.0000   1.0000   1.0000   1.0000   1.0000   1.0000   1.0000   1.0000
     1.0000   1.0000   0.0000   0.0000   0.0000   0.0000   0.0000   0.0000
     0.0000   0.0000   0.0000   0.0000   0.0000   0.0000   0.0000   0.0000
     0.0000   0.0000   0.0000   0.0000   0.0000   0.0000

          k = 0.1765 0.1019 0.2894 (  2057 PWs)   bands (ev):

   -41.1185 -41.1130 -20.1479 -20.1186  -2.1787  -1.9628  -1.3439  -1.2674
    -1.2564  -1.2055   8.9748   9.4549  16.0419  16.2711  18.2812  18.4287
    18.6828  18.7943  23.4070  23.9522  25.8437  26.7537  28.6509  28.9180
    30.1937  30.4514  32.4517  32.7624  34.0501  34.5240

     occupation numbers 
     1.0000   1.0000   1.0000   1.0000   1.0000   1.0000   1.0000   1.0000
     1.0000   1.0000   0.0000   0.0000   0.0000   0.0000   0.0000   0.0000
     0.0000   0.0000   0.0000   0.0000   0.0000   0.0000   0.0000   0.0000
     0.0000   0.0000   0.0000   0.0000   0.0000   0.0000

          k = 0.2353 0.1358 0.0000 (  2068 PWs)   bands (ev):

   -41.1284 -41.0945 -20.2047 -20.0216  -2.7686  -1.8498  -1.5489  -1.5205
    -1.0576  -0.9693   8.3047  11.9804  14.2079  16.1985  18.1586  18.4259
    19.2349  19.5097  21.0490  23.0845  24.3919  27.7769  30.1679  30.3508
    30.9314  31.0096  31.6636  33.5416  33.7646  35.7443

     occupation numbers 
     1.0000   1.0000   1.0000   1.0000   1.0000   1.0000   1.0000   1.0000
     1.0000   1.0000   0.0000   0.0000   0.0000   0.0000   0.0000   0.0000
     0.0000   0.0000   0.0000   0.0000   0.0000   0.0000   0.0000   0.0000
     0.0000   0.0000   0.0000   0.0000   0.0000   0.0000

          k = 0.2353 0.1358 0.0579 (  2064 PWs)   bands (ev):

   -41.1277 -41.0951 -20.2013 -20.0257  -2.7428  -1.8432  -1.5393  -1.5363
    -1.0680  -0.9831   8.3415  11.7728  14.3876  16.1833  18.1619  18.4041
    19.1754  19.4932  21.1425  23.2432  24.3878  27.8831  29.6489  30.5589
    30.6838  31.1563  31.8562  33.5426  33.7492  35.7545

     occupation numbers 
     1.0000   1.0000   1.0000   1.0000   1.0000   1.0000   1.0000   1.0000
     1.0000   1.0000   0.0000   0.0000   0.0000   0.0000   0.0000   0.0000
     0.0000   0.0000   0.0000   0.0000   0.0000   0.0000   0.0000   0.0000
     0.0000   0.0000   0.0000   0.0000   0.0000   0.0000

          k = 0.2353 0.1358 0.1158 (  2068 PWs)   bands (ev):

   -41.1257 -41.0971 -20.1914 -20.0375  -2.6680  -1.8346  -1.5697  -1.5112
    -1.0980  -1.0255   8.4536  11.3008  14.7664  16.1370  18.1750  18.3793
    19.0240  19.4395  21.3976  23.6886  24.3683  28.1143  29.0513  30.0181
    30.5633  31.5093  32.1323  33.6706  33.6769  35.7567

     occupation numbers 
     1.0000   1.0000   1.0000   1.0000   1.0000   1.0000   1.0000   1.0000
     1.0000   1.0000   0.0000   0.0000   0.0000   0.0000   0.0000   0.0000
     0.0000   0.0000   0.0000   0.0000   0.0000   0.0000   0.0000   0.0000
     0.0000   0.0000   0.0000   0.0000   0.0000   0.0000

          k = 0.2353 0.1358 0.1737 (  2062 PWs)   bands (ev):

   -41.1225 -41.1003 -20.1756 -20.0558  -2.5526  -1.8643  -1.5743  -1.4668
    -1.1452  -1.0970   8.6444  10.7492  15.1430  16.0591  18.2052  18.4230
    18.8331  19.3394  21.7782  24.2733  24.3575  28.1762  28.7218  29.1648
    30.6106  31.6467  32.3783  33.5178  34.0470  35.7219

     occupation numbers 
     1.0000   1.0000   1.0000   1.0000   1.0000   1.0000   1.0000   1.0000
     1.0000   1.0000   0.0000   0.0000   0.0000   0.0000   0.0000   0.0000
     0.0000   0.0000   0.0000   0.0000   0.0000   0.0000   0.0000   0.0000
     0.0000   0.0000   0.0000   0.0000   0.0000   0.0000

          k = 0.2353 0.1358 0.2315 (  2058 PWs)   bands (ev):

   -41.1185 -41.1043 -20.1549 -20.0789  -2.4090  -1.9598  -1.5171  -1.4092
    -1.2052  -1.1939   8.9172  10.2043  15.4375  15.9510  18.2617  18.5633
    18.6441  19.1876  22.2732  23.9865  25.1911  28.0693  28.1877  28.6162
    30.8433  31.6085  32.6046  33.2971  34.4617  35.4507

     occupation numbers 
[...]
     0.0000   0.0000   0.0000   0.0000   0.0000   0.0000   0.0000   0.0000
     0.0000   0.0000   0.0000   0.0000   0.0000   0.0000

          k = 0.4706 0.0000 0.2315 (  2063 PWs)   bands (ev):

   -41.1028 -41.0956 -20.0905 -20.0524  -2.4932  -2.4080  -1.8380  -1.7932
    -1.3407  -1.1629  10.3749  11.1156  14.0494  14.4736  17.4463  18.1966
    19.4270  20.0043  21.3415  23.4822  26.7815  27.0381  28.4840  28.8183
    31.5584  31.9945  34.3413  35.2152  36.7136  37.0406

     occupation numbers 
     1.0000   1.0000   1.0000   1.0000   1.0000   1.0000   1.0000   1.0000
     1.0000   1.0000   0.0000   0.0000   0.0000   0.0000   0.0000   0.0000
     0.0000   0.0000   0.0000   0.0000   0.0000   0.0000   0.0000   0.0000
     0.0000   0.0000   0.0000   0.0000   0.0000   0.0000

          k = 0.4706 0.0000 0.2894 (  2067 PWs)   bands (ev):

   -41.1004 -41.0980 -20.0785 -20.0655  -2.4446  -2.4169  -1.8573  -1.8380
    -1.2630  -1.1991  10.5499  10.7975  14.1305  14.2755  17.8742  18.1209
    19.6091  19.7997  21.9981  22.7787  26.8167  26.9609  28.4547  28.5836
    31.6113  31.7765  34.7265  35.0158  37.1824  37.5088

     occupation numbers 
     1.0000   1.0000   1.0000   1.0000   1.0000   1.0000   1.0000   1.0000
     1.0000   1.0000   0.0000   0.0000   0.0000   0.0000   0.0000   0.0000
     0.0000   0.0000   0.0000   0.0000   0.0000   0.0000   0.0000   0.0000
     0.0000   0.0000   0.0000   0.0000   0.0000   0.0000

          k = 0.5294 0.0340 0.0000 (  2073 PWs)   bands (ev):

   -41.1029 -41.0911 -20.0913 -20.0290  -2.7927  -2.2806  -1.8182  -1.6985
    -1.4877  -1.3042  10.7134  12.3940  13.7467  14.7373  16.0218  17.6199
    18.3747  20.4720  20.6880  24.3486  26.7011  27.6815  29.5459  31.0101
    32.1645  32.9139  33.7493  34.0399  35.2108  36.2715

     occupation numbers 
     1.0000   1.0000   1.0000   1.0000   1.0000   1.0000   1.0000   1.0000
     1.0000   1.0000   0.0000   0.0000   0.0000   0.0000   0.0000   0.0000
     0.0000   0.0000   0.0000   0.0000   0.0000   0.0000   0.0000   0.0000
     0.0000   0.0000   0.0000   0.0000   0.0000   0.0000

          k = 0.5294 0.0340 0.0579 (  2075 PWs)   bands (ev):

   -41.1027 -41.0913 -20.0903 -20.0306  -2.7777  -2.2882  -1.8328  -1.7091
    -1.4822  -1.2827  10.7185  12.2892  13.7249  14.6573  16.1798  17.6760
    18.4660  20.4847  20.6636  24.3676  26.7196  27.6327  29.4634  30.3764
    32.1219  32.8942  33.5963  34.9988  35.3634  36.3343

     occupation numbers 
     1.0000   1.0000   1.0000   1.0000   1.0000   1.0000   1.0000   1.0000
     1.0000   1.0000   0.0000   0.0000   0.0000   0.0000   0.0000   0.0000
     0.0000   0.0000   0.0000   0.0000   0.0000   0.0000   0.0000   0.0000
     0.0000   0.0000   0.0000   0.0000   0.0000   0.0000

          k = 0.5294 0.0340 0.1158 (  2068 PWs)   bands (ev):

   -41.1020 -41.0920 -20.0873 -20.0349  -2.7343  -2.3071  -1.8775  -1.7393
    -1.4524  -1.2369  10.7365  12.0315  13.6685  14.4580  16.5860  17.8153
    18.7129  20.4856  20.6480  24.3587  26.7517  27.4741  29.2247  29.3767
    32.0575  32.7799  33.9061  35.2587  36.2010  36.7046

     occupation numbers 
     1.0000   1.0000   1.0000   1.0000   1.0000   1.0000   1.0000   1.0000
     1.0000   1.0000   0.0000   0.0000   0.0000   0.0000   0.0000   0.0000
     0.0000   0.0000   0.0000   0.0000   0.0000   0.0000   0.0000   0.0000
     0.0000   0.0000   0.0000   0.0000   0.0000   0.0000

          k = 0.5294 0.0340 0.1737 (  2069 PWs)   bands (ev):

   -41.1009 -41.0931 -20.0824 -20.0416  -2.6673  -2.3331  -1.9330  -1.7953
    -1.3895  -1.1959  10.7760  11.7185  13.6119  14.2108  17.0996  17.9703
    19.0625  20.3911  20.7810  24.1081  26.7371  27.2990  28.6558  28.9920
    31.9354  32.6704  34.3521  35.2881  36.4600  37.0226

     occupation numbers 
     1.0000   1.0000   1.0000   1.0000   1.0000   1.0000   1.0000   1.0000
     1.0000   1.0000   0.0000   0.0000   0.0000   0.0000   0.0000   0.0000
     0.0000   0.0000   0.0000   0.0000   0.0000   0.0000   0.0000   0.0000
     0.0000   0.0000   0.0000   0.0000   0.0000   0.0000

          k = 0.5294 0.0340 0.2315 (  2068 PWs)   bands (ev):

   -41.0994 -41.0945 -20.0757 -20.0499  -2.5851  -2.3694  -1.9712  -1.8674
    -1.3115  -1.1786  10.8510  11.4180  13.5973  13.9721  17.5725  18.0697
    19.4580  20.2489  21.1011  23.4318  26.7826  27.2595  28.3517  28.6833
    31.8842  32.4694  34.7658  35.2247  36.7786  37.4192

     occupation numbers 
     1.0000   1.0000   1.0000   1.0000   1.0000   1.0000   1.0000   1.0000
     1.0000   1.0000   0.0000   0.0000   0.0000   0.0000   0.0000   0.0000
     0.0000   0.0000   0.0000   0.0000   0.0000   0.0000   0.0000   0.0000
     0.0000   0.0000   0.0000   0.0000   0.0000   0.0000

          k = 0.5294 0.0340 0.2894 (  2075 PWs)   bands (ev):

   -41.0978 -41.0961 -20.0677 -20.0589  -2.4995  -2.4244  -1.9726  -1.9336
    -1.2408  -1.1937  10.9772  11.1660  13.6506  13.7783  17.9002  18.0588
    19.8122  20.0674  21.6854  22.5231  26.9883  27.1897  28.2781  28.4132
    31.9820  32.2062  35.0099  35.1329  37.2858  37.6455

     occupation numbers 
     1.0000   1.0000   1.0000   1.0000   1.0000   1.0000   1.0000   1.0000
     1.0000   1.0000   0.0000   0.0000   0.0000   0.0000   0.0000   0.0000
     0.0000   0.0000   0.0000   0.0000   0.0000   0.0000   0.0000   0.0000
     0.0000   0.0000   0.0000   0.0000   0.0000   0.0000

          k = 0.5882 0.0679 0.0000 (  2075 PWs)   bands (ev):

   -41.0996 -41.0920 -20.0747 -20.0365  -2.8688  -2.1488  -1.9549  -1.6786
    -1.5168  -1.3489  11.1103  12.3612  13.6678  14.2839  16.5780  17.2313
    18.0736  20.5235  20.7142  25.0464  26.0986  27.8427  29.6422  31.0686
    32.1736  32.7504  34.2270  34.3352  35.7683  36.2767

     occupation numbers 
     1.0000   1.0000   1.0000   1.0000   1.0000   1.0000   1.0000   1.0000
     1.0000   1.0000   0.0000   0.0000   0.0000   0.0000   0.0000   0.0000
     0.0000   0.0000   0.0000   0.0000   0.0000   0.0000   0.0000   0.0000
     0.0000   0.0000   0.0000   0.0000   0.0000   0.0000

          k = 0.5882 0.0679 0.0579 (  2077 PWs)   bands (ev):

   -41.0994 -41.0921 -20.0741 -20.0375  -2.8527  -2.1574  -1.9793  -1.6934
    -1.4972  -1.3274  11.1166  12.2765  13.6447  14.1970  16.7011  17.3132
    18.1717  20.5209  20.7090  25.0168  26.1416  27.7872  29.5284  30.3594
    32.2658  32.7647  34.3256  35.0354  35.8901  36.3764

     occupation numbers 
     1.0000   1.0000   1.0000   1.0000   1.0000   1.0000   1.0000   1.0000
     1.0000   1.0000   0.0000   0.0000   0.0000   0.0000   0.0000   0.0000
     0.0000   0.0000   0.0000   0.0000   0.0000   0.0000   0.0000   0.0000
     0.0000   0.0000   0.0000   0.0000   0.0000   0.0000

          k = 0.5882 0.0679 0.1158 (  2075 PWs)   bands (ev):

   -41.0990 -41.0926 -20.0725 -20.0404  -2.8054  -2.1823  -2.0347  -1.7399
    -1.4415  -1.2776  11.1357  12.0704  13.5690  13.9874  17.0264  17.5153
    18.4495  20.5081  20.7112  24.8401  26.2705  27.5994  29.2410  29.3644
    32.3947  32.7091  34.4829  35.7357  36.1302  36.9126

     occupation numbers 
     1.0000   1.0000   1.0000   1.0000   1.0000   1.0000   1.0000   1.0000
     1.0000   1.0000   0.0000   0.0000   0.0000   0.0000   0.0000   0.0000
     0.0000   0.0000   0.0000   0.0000   0.0000   0.0000   0.0000   0.0000
     0.0000   0.0000   0.0000   0.0000   0.0000   0.0000

          k = 0.5882 0.0679 0.1737 (  2077 PWs)   bands (ev):

   -41.0982 -41.0933 -20.0698 -20.0448  -2.7311  -2.2326  -2.0789  -1.8132
    -1.3648  -1.2265  11.1684  11.8267  13.4593  13.7468  17.4297  17.7487
    18.8874  20.4723  20.7699  24.2994  26.4859  27.3626  28.7323  28.9197
    32.2963  32.8140  34.6808  35.6030  36.3294  37.1567

     occupation numbers 
     1.0000   1.0000   1.0000   1.0000   1.0000   1.0000   1.0000   1.0000
     1.0000   1.0000   0.0000   0.0000   0.0000   0.0000   0.0000   0.0000
     0.0000   0.0000   0.0000   0.0000   0.0000   0.0000   0.0000   0.0000
     0.0000   0.0000   0.0000   0.0000   0.0000   0.0000

          k = 0.5882 0.0679 0.2315 (  2072 PWs)   bands (ev):

   -41.0973 -41.0942 -20.0661 -20.0502  -2.6363  -2.3169  -2.0807  -1.8991
    -1.2873  -1.1948  11.2201  11.6031  13.3675  13.5392  17.7613  17.9316
    19.4547  20.4002  20.9644  23.3710  26.7724  27.2766  28.4066  28.5851
    32.2494  32.7815  34.8361  35.3854  36.5833  37.5448

     occupation numbers 
     1.0000   1.0000   1.0000   1.0000   1.0000   1.0000   1.0000   1.0000
     1.0000   1.0000   0.0000   0.0000   0.0000   0.0000   0.0000   0.0000
     0.0000   0.0000   0.0000   0.0000   0.0000   0.0000   0.0000   0.0000
     0.0000   0.0000   0.0000   0.0000   0.0000   0.0000

          k = 0.5882 0.0679 0.2894 (  2070 PWs)   bands (ev):

   -41.0963 -41.0952 -20.0613 -20.0559  -2.5295  -2.4201  -2.0451  -1.9812
    -1.2264  -1.1938  11.3015  11.4264  13.3402  13.3982  17.9534  18.0075
    19.9720  20.2617  21.4554  22.3267  27.0667  27.2455  28.2473  28.3244
    32.3588  32.5801  34.9705  35.1577  37.1266  37.5861

     occupation numbers 
     1.0000   1.0000   1.0000   1.0000   1.0000   1.0000   1.0000   1.0000
     1.0000   1.0000   0.0000   0.0000   0.0000   0.0000   0.0000   0.0000
     0.0000   0.0000   0.0000   0.0000   0.0000   0.0000   0.0000   0.0000
     0.0000   0.0000   0.0000   0.0000   0.0000   0.0000

          k = 0.5882 0.0000 0.0000 (  2079 PWs)   bands (ev):

   -41.0988 -41.0923 -20.0716 -20.0376  -2.8709  -2.1670  -1.8543  -1.7987
    -1.4904  -1.3675  11.1612  12.5358  13.5706  14.2409  16.4558  17.3615
    17.8800  20.5459  20.6554  25.1645  26.9016  27.0240  29.7291  30.9516
    32.6938  33.2529  33.6305  34.1441  35.4067  36.2105

     occupation numbers 
     1.0000   1.0000   1.0000   1.0000   1.0000   1.0000   1.0000   1.0000
     1.0000   1.0000   0.0000   0.0000   0.0000   0.0000   0.0000   0.0000
     0.0000   0.0000   0.0000   0.0000   0.0000   0.0000   0.0000   0.0000
     0.0000   0.0000   0.0000   0.0000   0.0000   0.0000

          k = 0.5882 0.0000 0.0579 (  2074 PWs)   bands (ev):

   -41.0987 -41.0924 -20.0712 -20.0386  -2.8529  -2.1795  -1.8781  -1.8139
    -1.4713  -1.3436  11.1704  12.4630  13.5170  14.1517  16.5932  17.4319
    18.0034  20.5524  20.6380  25.1340  26.8611  27.0536  29.6235  30.2599
    32.6270  33.1843  33.8278  35.1338  35.3776  36.2889

     occupation numbers 
     1.0000   1.0000   1.0000   1.0000   1.0000   1.0000   1.0000   1.0000
     1.0000   1.0000   0.0000   0.0000   0.0000   0.0000   0.0000   0.0000
     0.0000   0.0000   0.0000   0.0000   0.0000   0.0000   0.0000   0.0000
     0.0000   0.0000   0.0000   0.0000   0.0000   0.0000

          k = 0.5882 0.0000 0.1158 (  2086 PWs)   bands (ev):

   -41.0983 -41.0928 -20.0698 -20.0412  -2.8003  -2.2105  -1.9338  -1.8625
    -1.4176  -1.2891  11.1983  12.2753  13.3881  13.9327  16.9405  17.6066
    18.3525  20.5765  20.5926  24.9401  26.7589  27.1298  29.2222  29.3595
    32.4838  33.1596  34.3186  35.2058  36.3935  36.7167

     occupation numbers 
     1.0000   1.0000   1.0000   1.0000   1.0000   1.0000   1.0000   1.0000
     1.0000   1.0000   0.0000   0.0000   0.0000   0.0000   0.0000   0.0000
     0.0000   0.0000   0.0000   0.0000   0.0000   0.0000   0.0000   0.0000
     0.0000   0.0000   0.0000   0.0000   0.0000   0.0000

          k = 0.5882 0.0000 0.1737 (  2084 PWs)   bands (ev):

   -41.0977 -41.0934 -20.0675 -20.0453  -2.7173  -2.2509  -1.9960  -1.9390
    -1.3439  -1.2330  11.2469  12.0350  13.2512  13.6713  17.3553  17.8060
    18.8970  20.5335  20.6348  24.3346  26.7202  27.2162  28.5758  29.0307
    32.3600  33.1064  34.8392  34.9408  36.4659  37.2298

     occupation numbers 
     1.0000   1.0000   1.0000   1.0000   1.0000   1.0000   1.0000   1.0000
     1.0000   1.0000   0.0000   0.0000   0.0000   0.0000   0.0000   0.0000
     0.0000   0.0000   0.0000   0.0000   0.0000   0.0000   0.0000   0.0000
     0.0000   0.0000   0.0000   0.0000   0.0000   0.0000

          k = 0.5882 0.0000 0.2315 (  2074 PWs)   bands (ev):

   -41.0969 -41.0942 -20.0642 -20.0501  -2.6111  -2.3037  -2.0478  -2.0199
    -1.2706  -1.1956  11.3219  11.7957  13.1657  13.4330  17.7031  17.9537
    19.5826  20.4677  20.7848  23.3265  26.8447  27.2592  28.3299  28.7091
    32.3365  32.9481  34.7421  34.9918  36.9395  37.6620

     occupation numbers 
     1.0000   1.0000   1.0000   1.0000   1.0000   1.0000   1.0000   1.0000
     1.0000   1.0000   0.0000   0.0000   0.0000   0.0000   0.0000   0.0000
     0.0000   0.0000   0.0000   0.0000   0.0000   0.0000   0.0000   0.0000
     0.0000   0.0000   0.0000   0.0000   0.0000   0.0000

          k = 0.5882 0.0000 0.2894 (  2074 PWs)   bands (ev):

   -41.0960 -41.0950 -20.0601 -20.0552  -2.4938  -2.3844  -2.0770  -2.0711
    -1.2150  -1.1885  11.4331  11.5905  13.1648  13.2568  17.9203  18.0001
    20.1482  20.3741  21.2576  22.2060  27.0461  27.2064  28.3156  28.4537
    32.4560  32.6935  34.7267  34.8558  37.6747  37.9433

     occupation numbers 
     1.0000   1.0000   1.0000   1.0000   1.0000   1.0000   1.0000   1.0000
     1.0000   1.0000   0.0000   0.0000   0.0000   0.0000   0.0000   0.0000
     0.0000   0.0000   0.0000   0.0000   0.0000   0.0000   0.0000   0.0000
     0.0000   0.0000   0.0000   0.0000   0.0000   0.0000

          k = 0.6471 0.0340 0.0000 (  2083 PWs)   bands (ev):

   -41.0966 -41.0936 -20.0601 -20.0453  -2.8998  -2.0580  -1.9672  -1.8079
    -1.4702  -1.4039  11.3490  12.5916  13.6118  13.9101  16.9866  16.9935
    17.6204  20.5773  20.6402  25.7807  26.3640  27.0682  29.8024  30.9268
    32.9317  32.9716  34.1320  34.1925  35.8712  35.8784

     occupation numbers 
     1.0000   1.0000   1.0000   1.0000   1.0000   1.0000   1.0000   1.0000
     1.0000   1.0000   0.0000   0.0000   0.0000   0.0000   0.0000   0.0000
     0.0000   0.0000   0.0000   0.0000   0.0000   0.0000   0.0000   0.0000
     0.0000   0.0000   0.0000   0.0000   0.0000   0.0000

          k = 0.6471 0.0340 0.0579 (  2085 PWs)   bands (ev):

   -41.0965 -41.0936 -20.0601 -20.0458  -2.8809  -2.0705  -1.9906  -1.8289
    -1.4465  -1.3801  11.3628  12.5342  13.5461  13.8138  17.0907  17.0940
    17.7525  20.5743  20.6336  25.6762  26.4085  27.0688  29.6885  30.2237
    32.8941  33.0051  34.2995  35.1348  35.8372  35.9178

     occupation numbers 
     1.0000   1.0000   1.0000   1.0000   1.0000   1.0000   1.0000   1.0000
     1.0000   1.0000   0.0000   0.0000   0.0000   0.0000   0.0000   0.0000
     0.0000   0.0000   0.0000   0.0000   0.0000   0.0000   0.0000   0.0000
     0.0000   0.0000   0.0000   0.0000   0.0000   0.0000

          k = 0.6471 0.0340 0.1158 (  2086 PWs)   bands (ev):

   -41.0963 -41.0938 -20.0598 -20.0473  -2.8254  -2.0991  -2.0488  -1.8887
    -1.3867  -1.3234  11.4040  12.3849  13.3813  13.5795  17.3264  17.3570
    18.1453  20.5673  20.6201  25.2676  26.5327  27.0798  29.2022  29.4088
    32.7926  33.0633  34.7068  35.7208  35.7505  36.7245

     occupation numbers 
     1.0000   1.0000   1.0000   1.0000   1.0000   1.0000   1.0000   1.0000
     1.0000   1.0000   0.0000   0.0000   0.0000   0.0000   0.0000   0.0000
     0.0000   0.0000   0.0000   0.0000   0.0000   0.0000   0.0000   0.0000
     0.0000   0.0000   0.0000   0.0000   0.0000   0.0000

          k = 0.6471 0.0340 0.1737 (  2071 PWs)   bands (ev):

   -41.0960 -41.0941 -20.0593 -20.0496  -2.7368  -2.1277  -2.1266  -1.9738
    -1.3132  -1.2600  11.4713  12.1915  13.1862  13.3098  17.5962  17.6454
    18.7913  20.5599  20.6162  24.4241  26.7111  27.1177  28.5801  29.0710
    32.7068  33.1053  34.7903  35.3615  36.0449  37.2858

     occupation numbers 
     1.0000   1.0000   1.0000   1.0000   1.0000   1.0000   1.0000   1.0000
     1.0000   1.0000   0.0000   0.0000   0.0000   0.0000   0.0000   0.0000
     0.0000   0.0000   0.0000   0.0000   0.0000   0.0000   0.0000   0.0000
     0.0000   0.0000   0.0000   0.0000   0.0000   0.0000

          k = 0.6471 0.0340 0.2315 (  2074 PWs)   bands (ev):

   -41.0956 -41.0944 -20.0583 -20.0521  -2.6215  -2.2254  -2.1442  -2.0575
    -1.2468  -1.2113  11.5633  11.9964  13.0237  13.0862  17.8190  17.8617
    19.6400  20.5504  20.6522  23.2709  26.9059  27.1639  28.3478  28.7508
    32.7042  33.0968  34.5197  34.9273  36.9442  37.8142

     occupation numbers 
     1.0000   1.0000   1.0000   1.0000   1.0000   1.0000   1.0000   1.0000
     1.0000   1.0000   0.0000   0.0000   0.0000   0.0000   0.0000   0.0000
     0.0000   0.0000   0.0000   0.0000   0.0000   0.0000   0.0000   0.0000
     0.0000   0.0000   0.0000   0.0000   0.0000   0.0000

          k = 0.6471 0.0340 0.2894 (  2075 PWs)   bands (ev):

   -41.0952 -41.0948 -20.0567 -20.0546  -2.4884  -2.3505  -2.1414  -2.1143
    -1.2028  -1.1904  11.6799  11.8236  12.9380  12.9563  17.9493  17.9659
    20.3821  20.5245  20.9855  22.0461  27.0711  27.1618  28.3464  28.4958
    32.8120  32.9831  34.4157  34.5795  37.8471  38.1141

     occupation numbers 
     1.0000   1.0000   1.0000   1.0000   1.0000   1.0000   1.0000   1.0000
     1.0000   1.0000   0.0000   0.0000   0.0000   0.0000   0.0000   0.0000
     0.0000   0.0000   0.0000   0.0000   0.0000   0.0000   0.0000   0.0000
     0.0000   0.0000   0.0000   0.0000   0.0000   0.0000

     the Fermi energy is     3.7734 ev
     (compare with:     3.7696 eV, computed in scf)

     Writing all to output data dir ./pwscf.save/ :
     XML data file, pseudopotentials, collected wavefunctions

     init_run     :      0.51s CPU      0.47s WALL (       1 calls)
     electrons    :   1389.03s CPU    701.35s WALL (       1 calls)

     Called by init_run:
     wfcinit      :      0.00s CPU      0.00s WALL (       1 calls)
     wfcinit:atom :      0.05s CPU      0.03s WALL (     198 calls)
     wfcinit:wfcr :     45.07s CPU     22.77s WALL (     198 calls)
     potinit      :      0.21s CPU      0.17s WALL (       1 calls)
     hinit0       :      0.17s CPU      0.17s WALL (       1 calls)

     Called by electrons:
     c_bands      :   1389.00s CPU    701.33s WALL (       1 calls)
     v_of_rho     :      0.05s CPU      0.03s WALL (       1 calls)
     v_h          :      0.01s CPU      0.00s WALL (       1 calls)
     v_xc         :      0.04s CPU      0.02s WALL (       1 calls)
     newd         :      0.07s CPU      0.04s WALL (       1 calls)

     Called by c_bands:
     init_us_2    :      0.10s CPU      0.06s WALL (     198 calls)
     cegterg      :   1339.77s CPU    675.88s WALL (     396 calls)

     Called by sum_band:

     Called by *egterg:
     cdiaghg      :     28.08s CPU     15.54s WALL (    6409 calls)
     cegterg:over :     71.58s CPU     38.37s WALL (    6211 calls)
     cegterg:upda :     84.49s CPU     38.86s WALL (    6211 calls)
     cegterg:last :     13.25s CPU      7.35s WALL (    3706 calls)
     h_psi        :    999.03s CPU    506.90s WALL (    6805 calls)
     s_psi        :     40.70s CPU     20.87s WALL (    6805 calls)
     g_psi        :      0.42s CPU      0.41s WALL (    6211 calls)

     Called by h_psi:
     h_psi:calbec :    116.85s CPU     56.72s WALL (    6805 calls)
     vloc_psi     :    841.42s CPU    429.87s WALL (    6805 calls)
                                        0.00s GPU  (    6805 calls)
     add_vuspsi   :     11.85s CPU      6.05s WALL (    6805 calls)

     General routines
     calbec       :    116.57s CPU     56.67s WALL (    6805 calls)
     fft          :      0.12s CPU      0.11s WALL (      12 calls)
     ffts         :      0.14s CPU      0.12s WALL (       1 calls)
     fftw         :    773.54s CPU    394.16s WALL (  237684 calls)
     interpolate  :      0.14s CPU      0.12s WALL (       1 calls)
     davcio       :      3.61s CPU      3.29s WALL (     396 calls)

     Parallel routines

     PWSCF        :  23m14.78s CPU  12m 1.18s WALL


   This run was terminated on:  10:50:12  16Apr2026            

=------------------------------------------------------------------------------=
   JOB DONE.
=------------------------------------------------------------------------------=
