
     Program PWSCF v.7.5 starts on 16Apr2026 at 10:33:56 

     This program is part of the open-source Quantum ESPRESSO suite
     for quantum simulation of materials; please cite
         "P. Giannozzi et al., J. Phys.:Condens. Matter 21 395502 (2009);
         "P. Giannozzi et al., J. Phys.:Condens. Matter 29 465901 (2017);
         "P. Giannozzi et al., J. Chem. Phys. 152 154105 (2020);
          URL http://www.quantum-espresso.org", 
     in publications or presentations arising from this work. More details at
     http://www.quantum-espresso.org/quote

     Parallel version (MPI & OpenMP), running on       8 processor cores
     Number of MPI processes:                 4
     Threads/MPI process:                     2

     MPI processes distributed on     1 nodes
     6753 MiB available memory on the printing compute node when the environment starts

     Reading input from scf.in
Warning: card &CELL ignored

     Current dimensions of program PWSCF are:
     Max number of different atomic species (ntypx) = 10
     Max number of k-points (npk) =  40000
     Max angular momentum in pseudopotentials (lmaxx) =  4
     Message from routine setup:
     using ibrav=0 with symmetry is DISCOURAGED, use correct ibrav instead

     R & G space division:  proc/nbgrp/npool/nimage =       4
     Subspace diagonalization in iterative solution of the eigenvalue problem:
     a serial algorithm will be used


     Parallelization info
     --------------------
     sticks:   dense  smooth     PW     G-vecs:    dense   smooth      PW
     Min         277     139     40                11692     4135     672
     Max         278     140     41                11694     4140     675
     Sum        1111     559    163                46773    16551    2695

     Using Slab Decomposition



     bravais-lattice index     =            0
     lattice parameter (alat)  =       5.7843  a.u.
     unit-cell volume          =     263.2330 (a.u.)^3
     number of atoms/cell      =            4
     number of atomic types    =            2
     number of electrons       =        20.00
     number of Kohn-Sham states=           30
     kinetic-energy cutoff     =      60.0000  Ry
     charge density cutoff     =     480.0000  Ry
     scf convergence threshold =      1.0E-08
     mixing beta               =       0.4000
     number of iterations used =            8  plain     mixing
     Exchange-correlation=  SLA  PW   PBX  PBC
                           (   1   4   3   4   0   0   0)

     celldm(1)=   5.784339  celldm(2)=   0.000000  celldm(3)=   0.000000
     celldm(4)=   0.000000  celldm(5)=   0.000000  celldm(6)=   0.000000

     crystal axes: (cart. coord. in units of alat)
               a(1) = (   0.500000  -0.866025   0.000000 )  
               a(2) = (   0.500000   0.866025   0.000000 )  
               a(3) = (   0.000000   0.000000   1.570539 )  

     reciprocal axes: (cart. coord. in units 2 pi/alat)
               b(1) = (  1.000000 -0.577350  0.000000 )  
               b(2) = (  1.000000  0.577350 -0.000000 )  
               b(3) = ( -0.000000  0.000000  0.636724 )  


     PseudoPot. # 1 for F  read from file:
     /mnt/d/DeepESense/pseudo/SSSP_1.3.0_PBE_efficiency/f_pbe_v1.4.uspp.F.UPF
     MD5 check sum: 4c38b6a325caf53ec0e86aed9459de46
     Pseudo is Ultrasoft, Zval =  7.0
     Generated by new atomic code, or converted to UPF format
     Using radial grid of  799 points,  4 beta functions with: 
                l(1) =   0
                l(2) =   0
                l(3) =   1
                l(4) =   1
     Q(r) pseudized with  8 coefficients,  rinner =    0.950   0.950   0.950


     PseudoPot. # 2 for Li read from file:
     /mnt/d/DeepESense/pseudo/SSSP_1.3.0_PBE_efficiency/li_pbe_v1.4.uspp.F.UPF
     MD5 check sum: e912e257baa3777c20ea3d68f190483c
     Pseudo is Ultrasoft, Zval =  3.0
     Generated by new atomic code, or converted to UPF format
     Using radial grid of  751 points,  5 beta functions with: 
                l(1) =   0
                l(2) =   0
                l(3) =   0
                l(4) =   1
                l(5) =   1
     Q(r) pseudized with 10 coefficients,  rinner =    1.150   1.150   1.150


     atomic species   valence    mass     pseudopotential
     F                 7.00    18.99840     F ( 1.00)
     Li                3.00     6.94100     Li( 1.00)

     12 Sym. Ops. (no inversion) found ( 6 have fractional translation)



   Cartesian axes

     site n.     atom                  positions (alat units)
         1        Li     tau(   1) = (   0.5000000   0.2886757   0.5986171  )
         2        Li     tau(   2) = (   0.5000000  -0.2886757   1.3838865  )
         3        F      tau(   3) = (   0.5000000   0.2886757   1.5608705  )
         4        F      tau(   4) = (   0.5000000  -0.2886757   0.7756011  )

     number of k points=    56  Marzari-Vanderbilt smearing, width (Ry)=  0.0050
                       cart. coord. in units 2pi/alat
        k(    1) = (   0.0000000   0.0000000   0.0000000), wk =   0.0028571
        k(    2) = (   0.0000000   0.0000000   0.0909606), wk =   0.0057143
        k(    3) = (   0.0000000   0.0000000   0.1819212), wk =   0.0057143
        k(    4) = (   0.0000000   0.0000000   0.2728818), wk =   0.0057143
        k(    5) = (   0.1000000   0.0577350   0.0000000), wk =   0.0171429
        k(    6) = (   0.1000000   0.0577350   0.0909606), wk =   0.0342857
        k(    7) = (   0.1000000   0.0577350   0.1819212), wk =   0.0342857
        k(    8) = (   0.1000000   0.0577350   0.2728818), wk =   0.0342857
        k(    9) = (   0.2000000   0.1154701   0.0000000), wk =   0.0171429
        k(   10) = (   0.2000000   0.1154701   0.0909606), wk =   0.0342857
        k(   11) = (   0.2000000   0.1154701   0.1819212), wk =   0.0342857
        k(   12) = (   0.2000000   0.1154701   0.2728818), wk =   0.0342857
        k(   13) = (   0.3000000   0.1732051   0.0000000), wk =   0.0171429
        k(   14) = (   0.3000000   0.1732051   0.0909606), wk =   0.0342857
        k(   15) = (   0.3000000   0.1732051   0.1819212), wk =   0.0342857
        k(   16) = (   0.3000000   0.1732051   0.2728818), wk =   0.0342857
        k(   17) = (   0.4000000   0.2309401   0.0000000), wk =   0.0171429
        k(   18) = (   0.4000000   0.2309401   0.0909606), wk =   0.0342857
        k(   19) = (   0.4000000   0.2309401   0.1819212), wk =   0.0342857
        k(   20) = (   0.4000000   0.2309401   0.2728818), wk =   0.0342857
        k(   21) = (  -0.5000000  -0.2886751   0.0000000), wk =   0.0085714
        k(   22) = (  -0.5000000  -0.2886751   0.0909606), wk =   0.0171429
        k(   23) = (  -0.5000000  -0.2886751   0.1819212), wk =   0.0171429
        k(   24) = (  -0.5000000  -0.2886751   0.2728818), wk =   0.0171429
        k(   25) = (   0.2000000   0.0000000   0.0000000), wk =   0.0171429
        k(   26) = (   0.2000000   0.0000000   0.0909606), wk =   0.0342857
        k(   27) = (   0.2000000   0.0000000   0.1819212), wk =   0.0342857
        k(   28) = (   0.2000000   0.0000000   0.2728818), wk =   0.0342857
        k(   29) = (   0.3000000   0.0577350   0.0000000), wk =   0.0342857
        k(   30) = (   0.3000000   0.0577350   0.0909606), wk =   0.0685714
        k(   31) = (   0.3000000   0.0577350   0.1819212), wk =   0.0685714
        k(   32) = (   0.3000000   0.0577350   0.2728818), wk =   0.0685714
        k(   33) = (   0.4000000   0.1154701   0.0000000), wk =   0.0342857
        k(   34) = (   0.4000000   0.1154701   0.0909606), wk =   0.0685714
        k(   35) = (   0.4000000   0.1154701   0.1819212), wk =   0.0685714
        k(   36) = (   0.4000000   0.1154701   0.2728818), wk =   0.0685714
        k(   37) = (   0.5000000   0.1732051   0.0000000), wk =   0.0342857
        k(   38) = (   0.5000000   0.1732051   0.0909606), wk =   0.0685714
        k(   39) = (   0.5000000   0.1732051   0.1819212), wk =   0.0685714
        k(   40) = (   0.5000000   0.1732051   0.2728818), wk =   0.0685714
        k(   41) = (   0.4000000   0.0000000   0.0000000), wk =   0.0171429
        k(   42) = (   0.4000000   0.0000000   0.0909606), wk =   0.0342857
        k(   43) = (   0.4000000   0.0000000   0.1819212), wk =   0.0342857
        k(   44) = (   0.4000000   0.0000000   0.2728818), wk =   0.0342857
        k(   45) = (   0.5000000   0.0577350   0.0000000), wk =   0.0342857
        k(   46) = (   0.5000000   0.0577350   0.0909606), wk =   0.0685714
        k(   47) = (   0.5000000   0.0577350   0.1819212), wk =   0.0685714
        k(   48) = (   0.5000000   0.0577350   0.2728818), wk =   0.0685714
        k(   49) = (   0.6000000   0.1154701   0.0000000), wk =   0.0171429
        k(   50) = (   0.6000000   0.1154701   0.0909606), wk =   0.0342857
        k(   51) = (   0.6000000   0.1154701   0.1819212), wk =   0.0342857
        k(   52) = (   0.6000000   0.1154701   0.2728818), wk =   0.0342857
        k(   53) = (   0.6000000   0.0000000   0.0000000), wk =   0.0171429
        k(   54) = (   0.6000000   0.0000000   0.0909606), wk =   0.0342857
        k(   55) = (   0.6000000   0.0000000   0.1819212), wk =   0.0342857
        k(   56) = (   0.6000000   0.0000000   0.2728818), wk =   0.0342857

     Dense  grid:    46773 G-vectors     FFT dimensions: (  45,  45,  64)

     Smooth grid:    16551 G-vectors     FFT dimensions: (  30,  30,  48)

     Estimated max dynamical RAM per process >      33.15 MB

     Estimated total dynamical RAM >     132.60 MB

     Initial potential from superposition of free atoms

     starting charge      19.0985, renormalised to      20.0000
     Starting wfcs are   18 randomized atomic wfcs +   12 random wfcs

     total cpu time spent up to now is        6.6 secs

     per-process dynamical memory:    39.4 Mb

     Self-consistent Calculation

     iteration #  1     ecut=    60.00 Ry     beta= 0.40
     Davidson diagonalization with overlap
     ethr =  1.00E-02,  avg # of iterations =  6.2

     Threshold (ethr) on eigenvalues was too large:
     Diagonalizing with lowered threshold

     Davidson diagonalization with overlap
     ethr =  2.51E-04,  avg # of iterations =  2.5

     total cpu time spent up to now is       84.7 secs

     total energy              =    -126.73044141 Ry
     estimated scf accuracy    <       0.05149691 Ry

     iteration #  2     ecut=    60.00 Ry     beta= 0.40
     Davidson diagonalization with overlap
     ethr =  2.57E-04,  avg # of iterations =  1.4

     total cpu time spent up to now is      105.9 secs

     total energy              =    -126.72931663 Ry
     estimated scf accuracy    <       0.01282343 Ry

     iteration #  3     ecut=    60.00 Ry     beta= 0.40
     Davidson diagonalization with overlap
     ethr =  6.41E-05,  avg # of iterations =  2.3

     total cpu time spent up to now is      129.1 secs

     total energy              =    -126.72970155 Ry
     estimated scf accuracy    <       0.00174591 Ry

     iteration #  4     ecut=    60.00 Ry     beta= 0.40
     Davidson diagonalization with overlap
     ethr =  8.73E-06,  avg # of iterations =  4.7

     total cpu time spent up to now is      163.2 secs

     total energy              =    -126.72997348 Ry
     estimated scf accuracy    <       0.00003702 Ry

     iteration #  5     ecut=    60.00 Ry     beta= 0.40
     Davidson diagonalization with overlap
     ethr =  1.85E-07,  avg # of iterations =  2.6

     total cpu time spent up to now is      189.0 secs

     total energy              =    -126.72998286 Ry
     estimated scf accuracy    <       0.00000033 Ry

     iteration #  6     ecut=    60.00 Ry     beta= 0.40
     Davidson diagonalization with overlap
     ethr =  1.65E-09,  avg # of iterations =  2.9

     total cpu time spent up to now is      219.0 secs

     total energy              =    -126.72998313 Ry
     estimated scf accuracy    <       0.00000003 Ry

     iteration #  7     ecut=    60.00 Ry     beta= 0.40
     Davidson diagonalization with overlap
     ethr =  1.59E-10,  avg # of iterations =  2.2

     total cpu time spent up to now is      245.8 secs

     End of self-consistent calculation

          k = 0.0000 0.0000 0.0000 (  2045 PWs)   bands (ev):

   -41.1446 -41.1005 -20.2708 -20.0336  -3.0180  -1.2826  -1.2826  -0.9599
    -0.9598  -0.8092   7.0978  11.3904  14.6396  17.9348  17.9348  19.0273
    19.0274  19.6944  23.2328  23.8238  23.8239  26.6249  26.6250  27.5298
    30.7382  30.7383  30.8178  33.0559  33.3882  33.3882

          k = 0.0000 0.0000 0.0910 (  2033 PWs)   bands (ev):

   -41.1424 -41.1026 -20.2601 -20.0464  -2.9186  -1.2668  -1.2668  -0.9760
    -0.9759  -0.9329   7.2567  11.0007  14.9982  17.9382  17.9382  18.9124
    18.9124  19.2090  23.9137  24.0545  24.0546  26.7242  26.7242  27.4461
    30.7317  30.7317  31.0035  32.5797  33.3107  33.3107

          k = 0.0000 0.0000 0.1819 (  2062 PWs)   bands (ev):

   -41.1363 -41.1088 -20.2295 -20.0817  -2.6362  -1.2684  -1.2223  -1.2223
    -1.0210  -1.0210   7.7084  10.1640  15.7510  17.9766  17.9767  18.3125
    18.6365  18.6366  24.6818  24.6819  25.2843  26.7640  26.7640  27.3314
    30.9069  30.9069  31.1624  31.6497  33.0188  33.0188

          k = 0.0000 0.0000 0.2729 (  2080 PWs)   bands (ev):

   -41.1274 -41.1176 -20.1838 -20.1311  -2.2161  -1.7297  -1.1578  -1.1578
    -1.0859  -1.0859   8.3941   9.2423  16.5799  17.4231  18.1013  18.1013
    18.3332  18.3332  25.5324  25.5325  26.3389  26.3390  26.5558  27.1870
    30.9440  30.9638  31.5414  31.5414  32.3947  32.3947

          k = 0.1000 0.0577 0.0000 (  2065 PWs)   bands (ev):

   -41.1413 -41.0991 -20.2577 -20.0305  -2.9655  -1.3926  -1.3431  -1.1058
    -0.9773  -0.8382   7.3422  11.5288  14.5407  17.4749  17.9713  19.1367
    19.1717  19.7186  21.7673  23.2610  24.6673  26.5590  27.7980  28.9503
    29.9128  30.9112  31.9170  32.3187  33.4405  33.6033

          k = 0.1000 0.0577 0.0910 (  2048 PWs)   bands (ev):

   -41.1392 -41.1012 -20.2474 -20.0428  -2.8719  -1.3756  -1.3253  -1.1584
    -0.9957  -0.9127   7.4863  11.1222  14.9062  17.4451  17.9785  19.0231
    19.0315  19.2921  22.3200  23.5755  24.8918  26.6089  27.7530  29.0217
    30.0315  30.9476  31.5765  32.1597  33.3630  33.7915

          k = 0.1000 0.0577 0.1819 (  2051 PWs)   bands (ev):

   -41.1333 -41.1070 -20.2181 -20.0766  -2.6072  -1.3985  -1.3055  -1.2752
    -1.0471  -1.0437   7.9022  10.2749  15.6279  17.3053  18.0243  18.6854
    18.7175  18.7809  23.3174  24.3939  25.1622  27.0856  27.4127  29.0133
    30.1901  30.6809  31.2200  32.2719  33.0892  33.9470

          k = 0.1000 0.0577 0.2729 (  2063 PWs)   bands (ev):

   -41.1249 -41.1155 -20.1744 -20.1240  -2.2180  -1.7786  -1.2393  -1.2024
    -1.1477  -1.1210   8.5478   9.3655  16.3412  16.9303  18.1549  18.3944
    18.4442  18.5323  24.2787  24.9581  25.4820  26.5879  28.0668  28.7950
    29.8696  30.0248  31.8425  32.5581  32.8734  33.6419

          k = 0.2000 0.1155 0.0000 (  2074 PWs)   bands (ev):

   -41.1324 -41.0957 -20.2215 -20.0238  -2.8260  -1.7117  -1.4894  -1.4117
    -1.0318  -0.9250   8.0018  11.8567  14.3223  16.5000  18.0972  18.9588
    19.2889  19.4051  20.9997  22.9475  24.4615  27.9744  29.2162  30.1062
    30.6242  30.9397  31.4190  33.4781  33.6269  34.7627

          k = 0.2000 0.1155 0.0910 (  2069 PWs)   bands (ev):

   -41.1306 -41.0975 -20.2125 -20.0345  -2.7517  -1.6986  -1.4674  -1.4542
    -1.0552  -0.9692   8.1092  11.4112  14.7061  16.4617  18.1072  18.7949
    19.1342  19.3454  21.3349  23.3327  24.4768  28.1342  29.1116  29.6642
    30.4695  30.9717  31.6505  33.5592  33.6003  34.8447

          k = 0.2000 0.1155 0.1819 (  2059 PWs)   bands (ev):

   -41.1255 -41.1026 -20.1871 -20.0640  -2.5461  -1.7399  -1.4972  -1.4055
    -1.1203  -1.0895   8.4327  10.5542  15.3462  16.3412  18.1552  18.6233
    18.8108  19.1718  22.0725  24.3251  24.3975  28.2930  28.5947  28.9838
    30.3240  30.9820  32.0817  33.3232  33.9516  35.1115

          k = 0.2000 0.1155 0.2729 (  2057 PWs)   bands (ev):

   -41.1181 -41.1099 -20.1491 -20.1052  -2.2585  -1.9603  -1.4037  -1.3151
    -1.2500  -1.2133   8.9687   9.6946  15.8274  16.1352  18.2779  18.5002
    18.6928  18.9249  22.9864  23.8853  25.6747  27.1754  28.4159  28.7704
    30.5727  30.8897  32.5293  32.9524  34.2446  34.8724

          k = 0.3000 0.1732 0.0000 (  2056 PWs)   bands (ev):

   -41.1206 -41.0923 -20.1716 -20.0196  -2.6953  -2.0571  -1.7025  -1.6548
    -1.1079  -1.0679   8.9171  12.1633  13.8907  15.8842  17.4232  18.2766
    19.0333  19.7529  21.1970  23.6149  24.1092  27.7670  29.8322  30.6961
    31.5700  32.0239  32.6607  34.3310  34.4117  36.9136

          k = 0.3000 0.1732 0.0910 (  2067 PWs)   bands (ev):

   -41.1192 -41.0937 -20.1648 -20.0279  -2.6594  -2.0426  -1.7205  -1.6289
    -1.1362  -1.0837   8.9770  11.6853  14.2707  15.8291  17.5470  18.2822
    18.9418  19.7265  21.3058  23.9683  24.1311  27.8970  29.0327  30.6701
    31.3585  32.2952  32.6731  34.2661  34.3484  36.7770

          k = 0.3000 0.1732 0.1819 (  2069 PWs)   bands (ev):

   -41.1153 -41.0976 -20.1454 -20.0507  -2.5585  -2.0884  -1.6695  -1.5557
    -1.2149  -1.1533   9.1755  10.8696  14.7718  15.6522  18.0035  18.3115
    18.7397  19.5901  21.6588  24.0331  24.9359  27.6092  28.4161  29.8303
    30.9200  32.6842  32.8136  33.9801  34.7325  36.2841

          k = 0.3000 0.1732 0.2729 (  2061 PWs)   bands (ev):

   -41.1096 -41.1033 -20.1163 -20.0826  -2.4097  -2.2379  -1.4949  -1.4484
    -1.3268  -1.2985   9.5510  10.1238  15.1094  15.3914  18.3908  18.5371
    18.6737  19.2457  22.3675  23.3495  26.3487  27.5086  27.9876  28.0466
    31.6479  32.3394  33.0822  33.4798  35.5389  35.8663

          k = 0.4000 0.2309 0.0000 (  2058 PWs)   bands (ev):

   -41.1099 -41.0907 -20.1227 -20.0238  -2.7831  -2.0960  -1.8806  -1.7802
    -1.2483  -1.1728   9.9041  12.0246  13.6303  15.3789  16.6273  18.4267
    18.7004  20.1582  21.2205  23.4887  24.6695  28.2627  29.5532  30.3500
    31.7372  32.2738  34.3587  36.1491  36.3975  37.2595

          k = 0.4000 0.2309 0.0910 (  2067 PWs)   bands (ev):

   -41.1090 -41.0916 -20.1185 -20.0294  -2.7696  -2.1411  -1.8380  -1.7517
    -1.2328  -1.2046   9.9123  11.6486  13.8907  15.2899  16.8775  18.4241
    18.6674  20.1164  21.2993  23.6436  24.9802  27.9680  28.7768  30.5047
    32.1196  32.2620  33.6534  35.5074  36.5286  37.5430

          k = 0.4000 0.2309 0.1819 (  2072 PWs)   bands (ev):

   -41.1063 -41.0943 -20.1062 -20.0446  -2.7178  -2.2855  -1.6838  -1.6710
    -1.2926  -1.2353   9.9669  11.0176  14.2068  15.0390  17.6462  18.4257
    18.5898  19.9210  21.5943  23.8144  25.8713  26.9069  28.0288  30.9003
    31.1999  32.6624  33.1409  34.5990  36.7824  37.7868

          k = 0.4000 0.2309 0.2729 (  2072 PWs)   bands (ev):

   -41.1024 -41.0981 -20.0876 -20.0656  -2.6136  -2.4611  -1.5523  -1.4830
    -1.4173  -1.3172  10.1385  10.4869  14.4460  14.7240  18.4504  18.5080
    18.6502  19.4577  22.2291  23.2015  26.6935  27.2497  27.3173  28.9985
    32.0682  32.6102  33.3813  33.8892  37.0208  37.5588

          k =-0.5000-0.2887 0.0000 (  2076 PWs)   bands (ev):

   -41.1051 -41.0908 -20.0986 -20.0307  -2.8729  -2.0872  -1.8641  -1.8265
    -1.3609  -1.1981  10.5599  11.5244  14.2191  14.3835  16.7116  18.4869
    18.5633  20.3791  21.1189  23.1821  25.1925  28.6202  29.6601  30.0380
    31.5346  32.2331  35.3659  36.0471  36.2354  37.4451

          k =-0.5000-0.2887 0.0910 (  2066 PWs)   bands (ev):

   -41.1044 -41.0915 -20.0958 -20.0347  -2.8595  -2.1706  -1.8008  -1.7971
    -1.3246  -1.2311  10.5399  11.2837  14.3259  14.3808  16.9164  18.4785
    18.5514  20.2979  21.2330  23.3930  25.4884  28.3470  28.3954  30.4417
    32.1595  32.1611  34.7489  35.1361  36.7415  37.4571

          k =-0.5000-0.2887 0.1819 (  2070 PWs)   bands (ev):

   -41.1024 -41.0935 -20.0878 -20.0455  -2.8081  -2.3522  -1.7139  -1.6423
    -1.3224  -1.2860  10.4928  10.8631  14.2324  14.4755  17.6419  18.4647
    18.5213  20.0422  21.5784  23.7155  26.3484  26.7388  27.7521  31.3031
    31.3179  32.5980  33.4535  34.5956  37.5401  37.9990

          k =-0.5000-0.2887 0.2729 (  2068 PWs)   bands (ev):

   -41.0995 -41.0963 -20.0753 -20.0602  -2.7032  -2.5447  -1.5912  -1.4600
    -1.4515  -1.3269  10.4723  10.5726  14.2327  14.3543  18.4652  18.4871
    18.6773  19.5362  22.2240  23.1978  26.3641  27.0059  27.7036  29.4507
    32.1861  32.6268  33.5246  33.9965  37.9332  38.5517

          k = 0.2000 0.0000 0.0000 (  2067 PWs)   bands (ev):

   -41.1352 -41.0967 -20.2330 -20.0256  -2.8674  -1.5875  -1.5238  -1.2423
    -1.0465  -0.8959   7.7951  11.7596  14.4252  16.7461  17.8716  19.0751
    19.3927  19.8269  21.5399  21.5629  26.3734  26.6627  28.2699  29.8711
    30.6570  30.8490  31.8191  33.0111  33.4798  34.3045

          k = 0.2000 0.0000 0.0910 (  2060 PWs)   bands (ev):

   -41.1333 -41.0986 -20.2236 -20.0369  -2.7861  -1.5856  -1.5014  -1.2843
    -1.0685  -0.9429   7.9139  11.3278  14.8020  16.7031  17.8858  18.9560
    19.2421  19.5062  21.9061  22.0697  26.1577  26.9461  28.6318  29.3892
    30.6460  30.6565  31.8052  32.9626  33.8792  34.2218

          k = 0.2000 0.0000 0.1819 (  2054 PWs)   bands (ev):

   -41.1279 -41.1039 -20.1969 -20.0678  -2.5590  -1.6471  -1.4377  -1.3526
    -1.1282  -1.0564   8.2666  10.4724  15.4662  16.5698  17.9583  18.7085
    18.9843  19.0513  22.7069  23.0189  25.8875  27.3624  28.5283  29.1328
    30.2964  30.6671  31.8945  32.6479  34.1416  34.5708

          k = 0.2000 0.0000 0.2729 (  2055 PWs)   bands (ev):

   -41.1202 -41.1116 -20.1570 -20.1110  -2.2358  -1.8945  -1.3483  -1.3302
    -1.2025  -1.1801   8.8381   9.5948  15.9988  16.3442  18.1429  18.4294
    18.7995  18.8106  23.5647  23.7279  25.8717  26.4974  28.9954  29.2805
    30.0451  30.4198  32.0923  32.2769  34.3701  34.7056

          k = 0.3000 0.0577 0.0000 (  2059 PWs)   bands (ev):

   -41.1248 -41.0934 -20.1898 -20.0201  -2.7070  -2.0109  -1.6840  -1.4360
    -1.1446  -1.0092   8.5913  12.0634  14.3192  15.7716  17.4195  18.5903
    19.5113  19.8027  20.8523  22.2006  25.9498  27.9233  29.1494  30.1158
    31.0175  31.7738  32.6401  33.3355  33.9135  36.5315

          k = 0.3000 0.0577 0.0910 (  2058 PWs)   bands (ev):

   -41.1232 -41.0949 -20.1822 -20.0294  -2.6534  -2.0029  -1.6593  -1.4670
    -1.1745  -1.0255   8.6700  11.6159  14.6820  15.7436  17.4568  18.5803
    19.3312  19.7506  21.0462  22.5771  25.8839  28.1493  28.9881  29.6810
    31.0055  31.3233  32.9471  33.5210  34.0775  36.3354

          k = 0.3000 0.0577 0.1819 (  2063 PWs)   bands (ev):

   -41.1189 -41.0992 -20.1604 -20.0548  -2.5090  -2.0181  -1.5985  -1.4959
    -1.2497  -1.0918   8.9185  10.7892  15.1794  15.6758  17.6664  18.5530
    19.1005  19.4800  21.6829  23.2716  25.8273  27.8271  28.6471  29.1383
    30.9534  31.6061  32.7950  33.2673  34.8704  36.0233

          k = 0.3000 0.0577 0.2729 (  2065 PWs)   bands (ev):

   -41.1125 -41.1055 -20.1279 -20.0902  -2.3158  -2.1299  -1.5243  -1.4617
    -1.3058  -1.2102   9.3591   9.9955  15.4350  15.5755  18.0626  18.4111
    19.0317  19.1957  22.5997  23.3977  26.0385  26.7796  28.6041  28.8943
    31.3795  31.8137  32.5687  32.8395  35.4785  35.8208

          k = 0.4000 0.1155 0.0000 (  2067 PWs)   bands (ev):

   -41.1134 -41.0910 -20.1397 -20.0205  -2.6719  -2.2418  -1.8078  -1.6555
    -1.2346  -1.1591   9.5670  12.2217  13.8514  15.5206  16.4885  18.2301
    18.9757  20.1100  21.0489  23.1457  25.4009  28.4080  29.2048  30.6251
    31.4620  32.5240  33.5215  34.3963  35.8848  36.7906

          k = 0.4000 0.1155 0.0910 (  2061 PWs)   bands (ev):

   -41.1123 -41.0921 -20.1345 -20.0271  -2.6543  -2.2315  -1.8009  -1.6473
    -1.2731  -1.1441   9.5996  11.8050  14.1130  15.4366  16.7076  18.2674
    18.9656  20.0704  21.1155  23.3644  25.5456  28.1751  28.8813  30.4675
    31.1395  32.6500  33.1505  34.9342  35.6387  36.6918

          k = 0.4000 0.1155 0.1819 (  2067 PWs)   bands (ev):

   -41.1092 -41.0952 -20.1195 -20.0452  -2.5958  -2.2583  -1.7710  -1.5712
    -1.3585  -1.1528   9.7230  11.0882  14.4114  15.1912  17.3644  18.3425
    18.9523  19.8816  21.4578  23.6658  25.9802  27.2830  28.4335  29.8134
    31.2506  32.1839  33.5511  34.6107  36.2079  36.6191

          k = 0.4000 0.1155 0.2729 (  2065 PWs)   bands (ev):

   -41.1047 -41.0997 -20.0968 -20.0703  -2.4936  -2.3653  -1.6725  -1.5521
    -1.3578  -1.2314   9.9933  10.4517  14.6289  14.8882  18.0511  18.3377
    19.0998  19.5153  22.1938  23.1851  26.6091  27.0327  27.9981  28.6751
    31.7458  32.0792  33.7590  34.0828  36.7171  37.0630

          k = 0.5000 0.1732 0.0000 (  2063 PWs)   bands (ev):

   -41.1051 -41.0908 -20.1000 -20.0289  -2.8361  -2.1266  -1.9610  -1.6940
    -1.3726  -1.2401  10.4881  11.8645  13.8650  14.7577  16.5458  18.0780
    18.5570  20.3820  21.0378  23.6804  25.2538  28.9027  29.2430  30.4490
    31.5391  32.4036  34.5094  35.3192  36.7142  37.2303

          k = 0.5000 0.1732 0.0910 (  2069 PWs)   bands (ev):

   -41.1044 -41.0915 -20.0971 -20.0330  -2.8185  -2.1712  -1.9569  -1.6458
    -1.3801  -1.2335  10.4793  11.5976  13.9755  14.6873  16.7827  18.1279
    18.6045  20.3329  21.1122  23.8034  25.5096  28.2962  28.7498  30.7454
    31.0957  32.6665  34.2830  35.2800  36.9395  37.2735

          k = 0.5000 0.1732 0.1819 (  2069 PWs)   bands (ev):

   -41.1024 -41.0934 -20.0886 -20.0443  -2.7595  -2.3190  -1.8819  -1.5306
    -1.4460  -1.2134  10.4744  11.1231  14.0518  14.5004  17.4874  18.2246
    18.7265  20.1456  21.4065  23.8602  26.2385  26.9676  28.1204  30.2819
    31.5955  32.2812  34.2713  34.8656  37.0928  37.8038

          k = 0.5000 0.1732 0.2729 (  2077 PWs)   bands (ev):

   -41.0995 -41.0963 -20.0754 -20.0596  -2.6510  -2.4968  -1.7519  -1.6043
    -1.3554  -1.2464  10.5380  10.7455  14.1094  14.2703  18.1351  18.2751
    19.1057  19.7360  22.0539  23.0906  26.7165  27.1113  27.6874  28.9240
    32.1579  32.3036  34.3049  34.5198  37.2708  38.0230

          k = 0.4000 0.0000 0.0000 (  2069 PWs)   bands (ev):

   -41.1147 -41.0911 -20.1460 -20.0192  -2.5303  -2.4224  -1.7684  -1.5141
    -1.3337  -1.1362   9.4687  12.2345  14.6872  14.7800  16.3728  18.1938
    19.3597  20.2607  20.4990  22.8214  26.7412  28.2139  29.0079  30.4703
    31.4085  32.7671  33.0255  33.0537  35.5193  36.7029

          k = 0.4000 0.0000 0.0910 (  2062 PWs)   bands (ev):

   -41.1136 -41.0923 -20.1404 -20.0262  -2.5090  -2.4025  -1.7327  -1.5680
    -1.3562  -1.1193   9.5123  11.8556  14.6631  15.0130  16.4813  18.2539
    19.3417  20.2998  20.5074  23.0778  26.7047  28.0520  29.0871  29.8181
    31.4072  31.7825  33.1227  34.1842  35.6874  36.5097

          k = 0.4000 0.0000 0.1819 (  2066 PWs)   bands (ev):

   -41.1103 -41.0955 -20.1244 -20.0454  -2.4520  -2.3593  -1.6684  -1.6647
    -1.3824  -1.1217   9.6652  11.1410  14.6435  15.0863  17.0476  18.3476
    19.3312  19.8997  21.1634  23.4811  26.6551  27.2636  28.8870  29.1049
    31.4028  31.6168  33.4261  34.6350  35.9620  36.3206

          k = 0.4000 0.0000 0.2729 (  2069 PWs)   bands (ev):

   -41.1055 -41.1003 -20.1002 -20.0721  -2.3820  -2.3409  -1.7117  -1.6815
    -1.3097  -1.1915   9.9750  10.4738  14.7126  14.8914  17.7997  18.2644
    19.3749  19.5474  22.1432  23.1886  26.5786  26.5949  28.7099  28.8804
    31.4232  31.5167  33.8881  34.3876  36.6752  36.8692

          k = 0.5000 0.0577 0.0000 (  2071 PWs)   bands (ev):

   -41.1052 -41.0907 -20.1022 -20.0261  -2.7490  -2.3106  -1.8264  -1.6588
    -1.4489  -1.2701  10.4478  12.3173  13.8429  14.9524  15.9631  17.7611
    18.6024  20.4153  20.7370  23.9632  26.4019  28.1093  29.3917  31.0402
    31.6796  32.7919  33.9143  34.1236  35.2569  36.3388

          k = 0.5000 0.0577 0.0910 (  2065 PWs)   bands (ev):

   -41.1045 -41.0914 -20.0990 -20.0305  -2.7191  -2.3198  -1.8530  -1.6628
    -1.4579  -1.2291  10.4611  12.0375  13.8482  14.7929  16.3191  17.8708
    18.7632  20.4180  20.7207  24.0478  26.4849  27.8740  29.2360  29.9334
    31.6927  32.7032  33.6970  35.2374  35.8155  36.6204

          k = 0.5000 0.0577 0.1819 (  2064 PWs)   bands (ev):

   -41.1024 -41.0934 -20.0898 -20.0424  -2.6375  -2.3483  -1.9143  -1.7122
    -1.4014  -1.1781  10.5230  11.5010  13.8298  14.4437  17.1219  18.0738
    19.1274  20.2644  20.9654  23.9252  26.6566  27.2612  28.6174  29.0687
    31.7466  32.3922  34.1931  35.4291  36.3626  37.0300

          k = 0.5000 0.0577 0.2729 (  2069 PWs)   bands (ev):

   -41.0995 -41.0963 -20.0757 -20.0588  -2.5260  -2.4174  -1.9125  -1.8239
    -1.2802  -1.1911  10.6905  11.0171  13.8900  14.1040  17.8312  18.1268
    19.5628  19.9659  21.7060  22.9201  26.8706  27.1516  28.2260  28.5348
    31.7992  32.1064  34.7801  35.1809  36.9841  37.5922

          k = 0.6000 0.1155 0.0000 (  2071 PWs)   bands (ev):

   -41.1005 -41.0916 -20.0786 -20.0353  -2.8674  -2.1161  -2.0183  -1.5874
    -1.5561  -1.3275  11.0407  12.1562  13.8004  14.3066  16.6690  17.2475
    18.2301  20.5036  20.7856  24.8270  25.7039  28.3097  29.5195  31.2186
    31.6151  32.5928  34.2896  34.6205  36.0548  36.9403

          k = 0.6000 0.1155 0.0910 (  2072 PWs)   bands (ev):

   -41.1000 -41.0921 -20.0771 -20.0380  -2.8335  -2.1125  -2.0910  -1.6234
    -1.5031  -1.2859  11.0480  11.9484  13.8000  14.1231  16.9327  17.4247
    18.4179  20.4844  20.8003  24.7523  25.8850  28.0181  29.2364  29.9574
    31.9583  32.5929  34.6190  35.3384  36.7318  36.8346

          k = 0.6000 0.1155 0.1819 (  2081 PWs)   bands (ev):

   -41.0988 -41.0933 -20.0724 -20.0454  -2.7378  -2.2499  -2.0816  -1.7298
    -1.3810  -1.2160  11.0700  11.5674  13.7001  13.7847  17.5583  17.7603
    18.9163  20.4069  20.9421  24.1438  26.3790  27.3130  28.6765  28.9973
    32.2433  32.5054  34.7318  35.7949  36.4234  37.1717

          k = 0.6000 0.1155 0.2729 (  2076 PWs)   bands (ev):

   -41.0970 -41.0950 -20.0647 -20.0551  -2.5964  -2.4279  -1.9996  -1.8712
    -1.2602  -1.1978  11.1256  11.2740  13.5697  13.5721  17.9835  17.9976
    19.6554  20.1892  21.4925  22.7415  27.0139  27.2088  28.1815  28.3468
    32.2416  32.5275  35.1072  35.4674  36.6276  37.3398

          k = 0.6000 0.0000 0.0000 (  2079 PWs)   bands (ev):

   -41.0981 -41.0926 -20.0683 -20.0397  -2.8812  -2.1410  -1.8775  -1.8066
    -1.4852  -1.3788  11.2264  12.5588  13.5628  14.1457  16.5611  17.3093
    17.7899  20.5566  20.6501  25.3269  26.8241  26.9844  29.7552  30.9418
    32.7478  33.2216  33.7516  34.1602  35.4696  36.1905

          k = 0.6000 0.0000 0.0910 (  2086 PWs)   bands (ev):

   -41.0978 -41.0928 -20.0675 -20.0417  -2.8364  -2.1712  -1.9292  -1.8501
    -1.4362  -1.3250  11.2524  12.4013  13.4278  13.9387  16.8655  17.4789
    18.1004  20.5681  20.6158  25.1873  26.7452  27.0554  29.5059  29.6260
    32.6212  33.1740  34.2066  35.3293  36.1271  36.3356

          k = 0.6000 0.0000 0.1819 (  2075 PWs)   bands (ev):

   -41.0970 -41.0936 -20.0648 -20.0470  -2.7097  -2.2360  -2.0228  -1.9707
    -1.3241  -1.2334  11.3317  12.0574  13.1858  13.5341  17.4636  17.8018
    18.9615  20.5428  20.6299  24.2319  26.7330  27.1943  28.5190  28.9972
    32.4450  33.1312  34.8640  34.9709  36.4358  37.3311

          k = 0.6000 0.0000 0.2729 (  2067 PWs)   bands (ev):

   -41.0959 -41.0947 -20.0601 -20.0538  -2.5273  -2.3450  -2.0889  -2.0819
    -1.2233  -1.1885  11.4771  11.7187  13.0788  13.2048  17.8842  17.9864
    20.0873  20.4518  20.9874  22.4769  26.9995  27.2169  28.3107  28.5320
    32.5126  32.8611  34.6141  34.8366  37.5425  37.9558

     the Fermi energy is     3.7696 ev

!    total energy              =    -126.72998317 Ry
     estimated scf accuracy    <          3.8E-10 Ry
     smearing contrib. (-TS)   =      -0.00000000 Ry
     internal energy E=F+TS    =    -126.72998317 Ry

     The total energy is F=E-TS. E is the sum of the following terms:
     one-electron contribution =     -67.47936412 Ry
     hartree contribution      =      40.73809511 Ry
     xc contribution           =     -25.88196845 Ry
     ewald contribution        =     -74.10674571 Ry

     convergence has been achieved in   7 iterations

     Forces acting on atoms (cartesian axes, Ry/au):

     atom    1 type  2   force =     0.00000000   -0.00000000   -0.00007953
     atom    2 type  2   force =    -0.00000000    0.00000000   -0.00007953
     atom    3 type  1   force =     0.00000000    0.00000000    0.00007953
     atom    4 type  1   force =     0.00000000    0.00000000    0.00007953

     Total force =     0.000159     Total SCF correction =     0.000026
     SCF correction compared to forces is large: reduce conv_thr to get better values


     Computing stress (Cartesian axis) and pressure

          total   stress  (Ry/bohr**3)                   (kbar)     P=       35.80
   0.00025260  -0.00000000   0.00000000           37.16       -0.00        0.00
   0.00000000   0.00025260   0.00000000            0.00       37.16        0.00
   0.00000000   0.00000000   0.00022481            0.00        0.00       33.07


     Writing all to output data dir ./pwscf.save/ :
     XML data file, charge density, pseudopotentials, collected wavefunctions

     init_run     :     11.79s CPU      6.18s WALL (       1 calls)
     electrons    :    473.19s CPU    239.23s WALL (       1 calls)
     forces       :      5.03s CPU      2.52s WALL (       1 calls)
     stress       :      1.26s CPU      0.64s WALL (       1 calls)

     Called by init_run:
     wfcinit      :     11.30s CPU      5.74s WALL (       1 calls)
     potinit      :      0.22s CPU      0.17s WALL (       1 calls)
     hinit0       :      0.17s CPU      0.18s WALL (       1 calls)

     Called by electrons:
     c_bands      :    405.24s CPU    204.73s WALL (       8 calls)
     sum_band     :     66.42s CPU     33.67s WALL (       8 calls)
     v_of_rho     :      0.65s CPU      0.34s WALL (       8 calls)
     newd         :      0.44s CPU      0.24s WALL (       8 calls)
     mix_rho      :      0.34s CPU      0.17s WALL (       8 calls)

     Called by c_bands:
     init_us_2    :      0.38s CPU      0.30s WALL (    1064 calls)
     cegterg      :    398.65s CPU    201.04s WALL (     448 calls)

     Called by *egterg:
     cdiaghg      :      6.33s CPU      3.65s WALL (    1782 calls)
     h_psi        :    309.79s CPU    156.70s WALL (    1894 calls)
     s_psi        :     12.54s CPU      6.43s WALL (    1894 calls)
     g_psi        :      0.08s CPU      0.08s WALL (    1390 calls)

     Called by h_psi:
     h_psi:calbec :     35.82s CPU     17.29s WALL (    1894 calls)
     vloc_psi     :    256.52s CPU    130.94s WALL (    1894 calls)
                                        0.00s GPU  (    1894 calls)
     add_vuspsi   :      3.43s CPU      1.77s WALL (    1894 calls)

     General routines
     calbec       :     47.62s CPU     23.02s WALL (    3294 calls)
     fft          :      1.04s CPU      0.56s WALL (     111 calls)
     ffts         :      0.22s CPU      0.16s WALL (      16 calls)
     fftw         :    277.97s CPU    141.81s WALL (   83478 calls)
     interpolate  :      0.15s CPU      0.13s WALL (       8 calls)

     Parallel routines

     PWSCF        :   8m12.55s CPU   4m13.33s WALL


   This run was terminated on:  10:38: 9  16Apr2026            

=------------------------------------------------------------------------------=
   JOB DONE.
=------------------------------------------------------------------------------=
