
     Program PWSCF v.7.5 starts on 17Apr2026 at 12:32:20 

     This program is part of the open-source Quantum ESPRESSO suite
     for quantum simulation of materials; please cite
         "P. Giannozzi et al., J. Phys.:Condens. Matter 21 395502 (2009);
         "P. Giannozzi et al., J. Phys.:Condens. Matter 29 465901 (2017);
         "P. Giannozzi et al., J. Chem. Phys. 152 154105 (2020);
          URL http://www.quantum-espresso.org", 
     in publications or presentations arising from this work. More details at
     http://www.quantum-espresso.org/quote

     Parallel version (MPI & OpenMP), running on      16 processor cores
     Number of MPI processes:                 8
     Threads/MPI process:                     2

     MPI processes distributed on     1 nodes
     6911 MiB available memory on the printing compute node when the environment starts

     Reading input from scf.in
Warning: card &CELL ignored

     Current dimensions of program PWSCF are:
     Max number of different atomic species (ntypx) = 10
     Max number of k-points (npk) =  40000
     Max angular momentum in pseudopotentials (lmaxx) =  4
     file K.pbe-spn-kjpaw_psl.1.0.0.UPF: wavefunction(s)  3S renormalized
     file Yb.paw.z_24.atompaw.wentzcovitch.v1.2.upf: wavefunction(s)  6S 0P 5D 0D 4F 0F renormalized
     Message from routine setup:
     using ibrav=0 with symmetry is DISCOURAGED, use correct ibrav instead

     R & G space division:  proc/nbgrp/npool/nimage =       8
     Subspace diagonalization in iterative solution of the eigenvalue problem:
     one sub-group per band group will be used
     ELPA distributed-memory algorithm (size of sub-group:  2*  2 procs)


     Parallelization info
     --------------------
     sticks:   dense  smooth     PW     G-vecs:    dense   smooth      PW
     Min         936     468    128                53448    18874    2692
     Max         938     469    129                53449    18877    2695
     Sum        7495    3745   1027               427591   150997   21547

     Using Slab Decomposition



     bravais-lattice index     =            0
     lattice parameter (alat)  =      15.0449  a.u.
     unit-cell volume          =    2407.9946 (a.u.)^3
     number of atoms/cell      =           28
     number of atomic types    =            3
     number of electrons       =       302.00
     number of Kohn-Sham states=          181
     kinetic-energy cutoff     =      60.0000  Ry
     charge density cutoff     =     480.0000  Ry
     scf convergence threshold =      1.0E-08
     mixing beta               =       0.4000
     number of iterations used =            8  plain     mixing
     Exchange-correlation= SLA PW PBX PBC
                           (   1   4   3   4   0   0   0)

     celldm(1)=  15.044930  celldm(2)=   0.000000  celldm(3)=   0.000000
     celldm(4)=   0.000000  celldm(5)=   0.000000  celldm(6)=   0.000000

     crystal axes: (cart. coord. in units of alat)
               a(1) = (   0.000000   0.707107   0.707107 )  
               a(2) = (   0.707107   0.000000   0.707107 )  
               a(3) = (   0.707107   0.707107   0.000000 )  

     reciprocal axes: (cart. coord. in units 2 pi/alat)
               b(1) = ( -0.707107  0.707107  0.707107 )  
               b(2) = (  0.707107 -0.707107  0.707107 )  
               b(3) = (  0.707107  0.707107 -0.707107 )  


     PseudoPot. # 1 for F  read from file:
     /mnt/d/DeepESense/pseudo/SSSP_1.3.0_PBE_efficiency/f_pbe_v1.4.uspp.F.UPF
     MD5 check sum: 4c38b6a325caf53ec0e86aed9459de46
     Pseudo is Ultrasoft, Zval =  7.0
     Generated by new atomic code, or converted to UPF format
     Using radial grid of  799 points,  4 beta functions with: 
                l(1) =   0
                l(2) =   0
                l(3) =   1
                l(4) =   1
     Q(r) pseudized with  8 coefficients,  rinner =    0.950   0.950   0.950


     PseudoPot. # 2 for K  read from file:
     /mnt/d/DeepESense/pseudo/SSSP_1.3.0_PBE_efficiency/K.pbe-spn-kjpaw_psl.1.0.0.UPF
     MD5 check sum: 7d58810084cac21f60fbe77ea2b688fd
     Pseudo is Projector augmented-wave + core cor, Zval =  9.0
     Generated using "atomic" code by A. Dal Corso  v.5.1
     Shape of augmentation charge: PSQ
     Using radial grid of 1165 points,  6 beta functions with: 
                l(1) =   0
                l(2) =   0
                l(3) =   1
                l(4) =   1
                l(5) =   2
                l(6) =   2
     Q(r) pseudized with 0 coefficients 


     PseudoPot. # 3 for Yb read from file:
     /mnt/d/DeepESense/pseudo/SSSP_1.3.0_PBE_efficiency/Yb.paw.z_24.atompaw.wentzcovitch.v1.2.upf
     MD5 check sum: 2246be0c1287a90a9096a0c3416daab6
     Pseudo is Projector augmented-wave + core cor, Zval = 24.0
     Generated using ATOMPAW code
     Shape of augmentation charge: BESSEL
     Using radial grid of 1117 points,  8 beta functions with: 
                l(1) =   0
                l(2) =   0
                l(3) =   1
                l(4) =   1
                l(5) =   2
                l(6) =   2
                l(7) =   3
                l(8) =   3
     Q(r) pseudized with 0 coefficients 


     atomic species   valence    mass     pseudopotential
     F                 7.00    18.99840     F ( 1.00)
     K                 9.00    39.09830     K ( 1.00)
     Yb               24.00   173.04000     Yb( 1.00)

     48 Sym. Ops., with inversion, found



   Cartesian axes

     site n.     atom                  positions (alat units)
         1        K      tau(   1) = (   0.3535534   0.3535534   0.3535534  )
         2        K      tau(   2) = (   1.0606602   1.0606602   1.0606602  )
         3        Yb     tau(   3) = (   0.3676008   0.7071068   0.7071068  )
         4        Yb     tau(   4) = (   0.7071068   0.7071068   0.3676008  )
         5        Yb     tau(   5) = (   0.7071068   1.0466128   0.7071068  )
         6        Yb     tau(   6) = (   1.0466128   0.7071068   0.7071068  )
         7        Yb     tau(   7) = (   0.7071068   0.3676008   0.7071068  )
         8        Yb     tau(   8) = (   0.7071068   0.7071068   1.0466128  )
         9        F      tau(   9) = (   0.7071068   0.2343663   0.4727405  )
        10        F      tau(  10) = (   1.1798473   0.9414731   0.7071068  )
        11        F      tau(  11) = (   1.1798473   1.4142136   1.1798473  )
        12        F      tau(  12) = (   0.0000000   0.2343663   0.2343663  )
        13        F      tau(  13) = (   0.8652265   0.5489864   0.8652265  )
        14        F      tau(  14) = (   0.8652272   0.8652272   0.8652272  )
        15        F      tau(  15) = (   0.5489864   0.8652265   0.8652265  )
        16        F      tau(  16) = (   0.9414731   0.9414731   1.4142136  )
        17        F      tau(  17) = (   0.8652265   0.8652265   0.5489864  )
        18        F      tau(  18) = (   0.5489864   0.5489864   0.5489864  )
        19        F      tau(  19) = (   0.5489871   0.5489871   0.8652272  )
        20        F      tau(  20) = (   0.7071068   0.4727405   0.2343663  )
        21        F      tau(  21) = (   0.0000000   0.4727405   0.4727405  )
        22        F      tau(  22) = (   0.2343663   0.7071068   0.4727405  )
        23        F      tau(  23) = (   0.4727405   0.7071068   0.2343663  )
        24        F      tau(  24) = (   0.9414731   1.4142136   0.9414731  )
        25        F      tau(  25) = (   0.5489871   0.8652272   0.5489871  )
        26        F      tau(  26) = (   0.9414731   1.1798473   0.7071068  )
        27        F      tau(  27) = (   0.8652272   0.5489871   0.5489871  )
        28        F      tau(  28) = (   1.1798473   1.1798473   1.4142136  )

     number of k points=     8  Marzari-Vanderbilt smearing, width (Ry)=  0.0050
                       cart. coord. in units 2pi/alat
        k(    1) = (   0.0000000   0.0000000   0.0000000), wk =   0.0312500
        k(    2) = (   0.1767767   0.1767767  -0.1767767), wk =   0.2500000
        k(    3) = (  -0.3535534  -0.3535534   0.3535534), wk =   0.1250000
        k(    4) = (   0.3535534   0.0000000   0.0000000), wk =   0.1875000
        k(    5) = (  -0.1767767  -0.5303301   0.5303301), wk =   0.7500000
        k(    6) = (   0.0000000  -0.3535534   0.3535534), wk =   0.3750000
        k(    7) = (  -0.7071068   0.0000000   0.0000000), wk =   0.0937500
        k(    8) = (  -0.7071068   0.3535534   0.0000000), wk =   0.1875000

     Dense  grid:   427591 G-vectors     FFT dimensions: ( 108, 108, 108)

     Smooth grid:   150997 G-vectors     FFT dimensions: (  75,  75,  75)

     Estimated max dynamical RAM per process >     622.38 MB

     Estimated total dynamical RAM >       4.86 GB
