
     Program PWSCF v.7.5 starts on 16Apr2026 at 16:17:51 

     This program is part of the open-source Quantum ESPRESSO suite
     for quantum simulation of materials; please cite
         "P. Giannozzi et al., J. Phys.:Condens. Matter 21 395502 (2009);
         "P. Giannozzi et al., J. Phys.:Condens. Matter 29 465901 (2017);
         "P. Giannozzi et al., J. Chem. Phys. 152 154105 (2020);
          URL http://www.quantum-espresso.org", 
     in publications or presentations arising from this work. More details at
     http://www.quantum-espresso.org/quote

     Parallel version (MPI & OpenMP), running on      16 processor cores
     Number of MPI processes:                 8
     Threads/MPI process:                     2

     MPI processes distributed on     1 nodes
     6614 MiB available memory on the printing compute node when the environment starts

     Reading input from nscf.in
Warning: card &IONS ignored
Warning: card &CELL ignored

     Current dimensions of program PWSCF are:
     Max number of different atomic species (ntypx) = 10
     Max number of k-points (npk) =  40000
     Max angular momentum in pseudopotentials (lmaxx) =  4
     file Pr.paw.z_13.atompaw.wentzcovitch.v1.2.upf: wavefunction(s)  6S 0P 5D 0D 0F renormalized

     Atomic positions and unit cell read from directory:
     ./pwscf.save/

     Message from routine setup:
     using ibrav=0 with symmetry is DISCOURAGED, use correct ibrav instead

     R & G space division:  proc/nbgrp/npool/nimage =       8
     Subspace diagonalization in iterative solution of the eigenvalue problem:
     a serial algorithm will be used


     Parallelization info
     --------------------
     sticks:   dense  smooth     PW     G-vecs:    dense   smooth      PW
     Min         777     387    114                26227     9281    1449
     Max         778     388    115                26230     9284    1450
     Sum        6217    3103    913               209819    74261   11599

     Using Slab Decomposition



     bravais-lattice index     =            0
     lattice parameter (alat)  =      13.7209  a.u.
     unit-cell volume          =    1182.0254 (a.u.)^3
     number of atoms/cell      =            9
     number of atomic types    =            3
     number of electrons       =        73.00
     number of Kohn-Sham states=          149
     kinetic-energy cutoff     =      60.0000  Ry
     charge density cutoff     =     480.0000  Ry
     Exchange-correlation= SLA PW PBX PBC
                           (   1   4   3   4   0   0   0)

     celldm(1)=  13.720941  celldm(2)=   0.000000  celldm(3)=   0.000000
     celldm(4)=   0.000000  celldm(5)=   0.000000  celldm(6)=   0.000000

     crystal axes: (cart. coord. in units of alat)
               a(1) = (   0.499929  -0.866066  -0.000000 )  
               a(2) = (   0.499929   0.866066   0.000000 )  
               a(3) = (   0.000000   0.000000   0.528427 )  

     reciprocal axes: (cart. coord. in units 2 pi/alat)
               b(1) = (  1.000141 -0.577323  0.000000 )  
               b(2) = (  1.000141  0.577323 -0.000000 )  
               b(3) = (  0.000000 -0.000000  1.892407 )  


     PseudoPot. # 1 for Cs read from file:
     /mnt/d/DeepESense/pseudo/SSSP_1.3.0_PBE_efficiency/Cs_pbe_v1.uspp.F.UPF
     MD5 check sum: 3476d69cb178dfad3ffaa59df4e07ca4
     Pseudo is Ultrasoft + core correction, Zval =  9.0
     Generated by new atomic code, or converted to UPF format
     Using radial grid of  905 points,  6 beta functions with: 
                l(1) =   0
                l(2) =   0
                l(3) =   1
                l(4) =   1
                l(5) =   2
                l(6) =   2
     Q(r) pseudized with  6 coefficients,  rinner =    1.500   1.500   1.500
                                                       1.500   1.500

     PseudoPot. # 2 for F  read from file:
     /mnt/d/DeepESense/pseudo/SSSP_1.3.0_PBE_efficiency/f_pbe_v1.4.uspp.F.UPF
     MD5 check sum: 4c38b6a325caf53ec0e86aed9459de46
     Pseudo is Ultrasoft, Zval =  7.0
     Generated by new atomic code, or converted to UPF format
     Using radial grid of  799 points,  4 beta functions with: 
                l(1) =   0
                l(2) =   0
                l(3) =   1
                l(4) =   1
     Q(r) pseudized with  8 coefficients,  rinner =    0.950   0.950   0.950


     PseudoPot. # 3 for Pr read from file:
     /mnt/d/DeepESense/pseudo/SSSP_1.3.0_PBE_efficiency/Pr.paw.z_13.atompaw.wentzcovitch.v1.2.upf
     MD5 check sum: e0f8e046fa815e336ba020f7e7bc75cb
     Pseudo is Projector augmented-wave + core cor, Zval = 13.0
     Generated using ATOMPAW code
     Shape of augmentation charge: BESSEL
     Using radial grid of 1103 points,  8 beta functions with: 
                l(1) =   0
                l(2) =   0
                l(3) =   1
                l(4) =   1
                l(5) =   2
                l(6) =   2
                l(7) =   3
                l(8) =   3
     Q(r) pseudized with 0 coefficients 


     atomic species   valence    mass     pseudopotential
     Cs                9.00   132.90550     Cs( 1.00)
     F                 7.00    18.99840     F ( 1.00)
     Pr               13.00   140.90760     Pr( 1.00)

      4 Sym. Ops. (no inversion) found


                                    s                        frac. trans.

      isym =  1     identity                                     

 cryst.   s( 1) = (     1          0          0      )
                  (     0          1          0      )
                  (     0          0          1      )

 cart.    s( 1) = (  1.0000000  0.0000000  0.0000000 )
                  (  0.0000000  1.0000000  0.0000000 )
                  (  0.0000000  0.0000000  1.0000000 )


      isym =  2     180 deg rotation - cart. axis [1,0,0]        

 cryst.   s( 2) = (     0          1          0      )
                  (     1          0          0      )
                  (     0          0         -1      )

 cart.    s( 2) = (  1.0000000  0.0000000  0.0000000 )
                  (  0.0000000 -1.0000000  0.0000000 )
                  (  0.0000000  0.0000000 -1.0000000 )


      isym =  3     inv. 180 deg rotation - cart. axis [0,0,1]   

 cryst.   s( 3) = (     1          0          0      )
                  (     0          1          0      )
                  (     0          0         -1      )

 cart.    s( 3) = (  1.0000000  0.0000000  0.0000000 )
                  (  0.0000000  1.0000000  0.0000000 )
                  (  0.0000000  0.0000000 -1.0000000 )


      isym =  4     inv. 180 deg rotation - cart. axis [0,1,0]   

 cryst.   s( 4) = (     0          1          0      )
                  (     1          0          0      )
                  (     0          0          1      )

 cart.    s( 4) = (  1.0000000  0.0000000  0.0000000 )
                  (  0.0000000 -1.0000000  0.0000000 )
                  (  0.0000000  0.0000000  1.0000000 )


   Cartesian axes

     site n.     atom                  positions (alat units)
         1        Cs     tau(   1) = (   0.4999169  -0.2886694   0.2642137  )
         2        Cs     tau(   2) = (   0.4999169   0.2886694   0.2642137  )
         3        Pr     tau(   3) = (   0.0001930   0.0000000   0.0000000  )
         4        F      tau(   4) = (   0.1067759  -0.1848878   0.2642137  )
         5        F      tau(   5) = (   0.7862850   0.0000000   0.2642137  )
         6        F      tau(   6) = (   0.1067759   0.1848878   0.2642137  )
         7        F      tau(   7) = (   0.3363140  -0.5826105   0.5284275  )
         8        F      tau(   8) = (   0.3271028   0.0000000   0.0000000  )
         9        F      tau(   9) = (   0.3363140   0.5826105   0.0000000  )

   Crystallographic axes

     site n.     atom                  positions (cryst. coord.)
         1        Cs     tau(   1) = (  0.6666430  0.3333320  0.5000000  )
         2        Cs     tau(   2) = (  0.3333320  0.6666430  0.5000000  )
         3        Pr     tau(   3) = (  0.0001930  0.0001930  0.0000000  )
         4        F      tau(   4) = (  0.2135310  0.0000510  0.5000000  )
         5        F      tau(   5) = (  0.7863960  0.7863960  0.5000000  )
         6        F      tau(   6) = (  0.0000510  0.2135310  0.5000000  )
         7        F      tau(   7) = (  0.6727160  0.0000070  1.0000000  )
         8        F      tau(   8) = (  0.3271490  0.3271490  0.0000000  )
         9        F      tau(   9) = (  0.0000070  0.6727160  0.0000000  )

     number of k points=   128  Marzari-Vanderbilt smearing, width (Ry)=  0.0050
                       cart. coord. in units 2pi/alat
        k(    1) = (   0.0000000   0.0000000   0.0000000), wk =   0.0029155
        k(    2) = (   0.0000000   0.0000000   0.1351719), wk =   0.0058309
        k(    3) = (   0.0000000   0.0000000   0.2703439), wk =   0.0058309
        k(    4) = (   0.0000000   0.0000000   0.4055158), wk =   0.0058309
        k(    5) = (   0.0000000   0.0000000   0.5406878), wk =   0.0058309
        k(    6) = (   0.0000000   0.0000000   0.6758597), wk =   0.0058309
        k(    7) = (   0.0000000   0.0000000   0.8110317), wk =   0.0058309
        k(    8) = (   0.0000000   0.0000000  -0.9462036), wk =   0.0029155
        k(    9) = (   0.1428773   0.0824747   0.0000000), wk =   0.0116618
        k(   10) = (   0.1428773   0.0824747   0.1351719), wk =   0.0233236
        k(   11) = (   0.1428773   0.0824747   0.2703439), wk =   0.0233236
        k(   12) = (   0.1428773   0.0824747   0.4055158), wk =   0.0233236
        k(   13) = (   0.1428773   0.0824747   0.5406878), wk =   0.0233236
        k(   14) = (   0.1428773   0.0824747   0.6758597), wk =   0.0233236
        k(   15) = (   0.1428773   0.0824747   0.8110317), wk =   0.0233236
        k(   16) = (   0.1428773   0.0824747  -0.9462036), wk =   0.0116618
        k(   17) = (   0.2857546   0.1649495   0.0000000), wk =   0.0116618
        k(   18) = (   0.2857546   0.1649495   0.1351719), wk =   0.0233236
        k(   19) = (   0.2857546   0.1649495   0.2703439), wk =   0.0233236
        k(   20) = (   0.2857546   0.1649495   0.4055158), wk =   0.0233236
        k(   21) = (   0.2857546   0.1649495   0.5406878), wk =   0.0233236
        k(   22) = (   0.2857546   0.1649495   0.6758597), wk =   0.0233236
        k(   23) = (   0.2857546   0.1649495   0.8110317), wk =   0.0233236
        k(   24) = (   0.2857546   0.1649495  -0.9462036), wk =   0.0116618
        k(   25) = (   0.4286319   0.2474242   0.0000000), wk =   0.0116618
        k(   26) = (   0.4286319   0.2474242   0.1351719), wk =   0.0233236
        k(   27) = (   0.4286319   0.2474242   0.2703439), wk =   0.0233236
        k(   28) = (   0.4286319   0.2474242   0.4055158), wk =   0.0233236
        k(   29) = (   0.4286319   0.2474242   0.5406878), wk =   0.0233236
        k(   30) = (   0.4286319   0.2474242   0.6758597), wk =   0.0233236
        k(   31) = (   0.4286319   0.2474242   0.8110317), wk =   0.0233236
        k(   32) = (   0.4286319   0.2474242  -0.9462036), wk =   0.0116618
        k(   33) = (   0.2857546   0.0000000   0.0000000), wk =   0.0058309
        k(   34) = (   0.2857546   0.0000000   0.1351719), wk =   0.0116618
        k(   35) = (   0.2857546   0.0000000   0.2703439), wk =   0.0116618
        k(   36) = (   0.2857546   0.0000000   0.4055158), wk =   0.0116618
        k(   37) = (   0.2857546   0.0000000   0.5406878), wk =   0.0116618
        k(   38) = (   0.2857546   0.0000000   0.6758597), wk =   0.0116618
        k(   39) = (   0.2857546   0.0000000   0.8110317), wk =   0.0116618
        k(   40) = (   0.2857546   0.0000000  -0.9462036), wk =   0.0058309
        k(   41) = (   0.4286319   0.0824747   0.0000000), wk =   0.0116618
        k(   42) = (   0.4286319   0.0824747   0.1351719), wk =   0.0233236
        k(   43) = (   0.4286319   0.0824747   0.2703439), wk =   0.0233236
        k(   44) = (   0.4286319   0.0824747   0.4055158), wk =   0.0233236
        k(   45) = (   0.4286319   0.0824747   0.5406878), wk =   0.0233236
        k(   46) = (   0.4286319   0.0824747   0.6758597), wk =   0.0233236
        k(   47) = (   0.4286319   0.0824747   0.8110317), wk =   0.0233236
        k(   48) = (   0.4286319   0.0824747  -0.9462036), wk =   0.0116618
        k(   49) = (   0.5715093   0.1649495   0.0000000), wk =   0.0116618
        k(   50) = (   0.5715093   0.1649495   0.1351719), wk =   0.0233236
        k(   51) = (   0.5715093   0.1649495   0.2703439), wk =   0.0233236
        k(   52) = (   0.5715093   0.1649495   0.4055158), wk =   0.0233236
        k(   53) = (   0.5715093   0.1649495   0.5406878), wk =   0.0233236
        k(   54) = (   0.5715093   0.1649495   0.6758597), wk =   0.0233236
        k(   55) = (   0.5715093   0.1649495   0.8110317), wk =   0.0233236
        k(   56) = (   0.5715093   0.1649495  -0.9462036), wk =   0.0116618
        k(   57) = (  -0.2857546  -0.3298989   0.0000000), wk =   0.0116618
        k(   58) = (  -0.2857546  -0.3298989   0.1351719), wk =   0.0233236
        k(   59) = (  -0.2857546  -0.3298989   0.2703439), wk =   0.0233236
        k(   60) = (  -0.2857546  -0.3298989   0.4055158), wk =   0.0233236
        k(   61) = (  -0.2857546  -0.3298989   0.5406878), wk =   0.0233236
        k(   62) = (  -0.2857546  -0.3298989   0.6758597), wk =   0.0233236
        k(   63) = (  -0.2857546  -0.3298989   0.8110317), wk =   0.0233236
        k(   64) = (  -0.2857546  -0.3298989  -0.9462036), wk =   0.0116618
        k(   65) = (  -0.1428773  -0.2474242   0.0000000), wk =   0.0116618
        k(   66) = (  -0.1428773  -0.2474242   0.1351719), wk =   0.0233236
        k(   67) = (  -0.1428773  -0.2474242   0.2703439), wk =   0.0233236
        k(   68) = (  -0.1428773  -0.2474242   0.4055158), wk =   0.0233236
        k(   69) = (  -0.1428773  -0.2474242   0.5406878), wk =   0.0233236
        k(   70) = (  -0.1428773  -0.2474242   0.6758597), wk =   0.0233236
        k(   71) = (  -0.1428773  -0.2474242   0.8110317), wk =   0.0233236
        k(   72) = (  -0.1428773  -0.2474242  -0.9462036), wk =   0.0116618
        k(   73) = (  -0.0000000  -0.1649495   0.0000000), wk =   0.0058309
        k(   74) = (  -0.0000000  -0.1649495   0.1351719), wk =   0.0116618
        k(   75) = (  -0.0000000  -0.1649495   0.2703439), wk =   0.0116618
        k(   76) = (  -0.0000000  -0.1649495   0.4055158), wk =   0.0116618
        k(   77) = (  -0.0000000  -0.1649495   0.5406878), wk =   0.0116618
        k(   78) = (  -0.0000000  -0.1649495   0.6758597), wk =   0.0116618
        k(   79) = (  -0.0000000  -0.1649495   0.8110317), wk =   0.0116618
        k(   80) = (  -0.0000000  -0.1649495  -0.9462036), wk =   0.0058309
        k(   81) = (   0.5715093   0.0000000   0.0000000), wk =   0.0058309
        k(   82) = (   0.5715093   0.0000000   0.1351719), wk =   0.0116618
        k(   83) = (   0.5715093   0.0000000   0.2703439), wk =   0.0116618
        k(   84) = (   0.5715093   0.0000000   0.4055158), wk =   0.0116618
        k(   85) = (   0.5715093   0.0000000   0.5406878), wk =   0.0116618
        k(   86) = (   0.5715093   0.0000000   0.6758597), wk =   0.0116618
        k(   87) = (   0.5715093   0.0000000   0.8110317), wk =   0.0116618
        k(   88) = (   0.5715093   0.0000000  -0.9462036), wk =   0.0058309
        k(   89) = (   0.7143866   0.0824747   0.0000000), wk =   0.0116618
        k(   90) = (   0.7143866   0.0824747   0.1351719), wk =   0.0233236
        k(   91) = (   0.7143866   0.0824747   0.2703439), wk =   0.0233236
        k(   92) = (   0.7143866   0.0824747   0.4055158), wk =   0.0233236
        k(   93) = (   0.7143866   0.0824747   0.5406878), wk =   0.0233236
        k(   94) = (   0.7143866   0.0824747   0.6758597), wk =   0.0233236
        k(   95) = (   0.7143866   0.0824747   0.8110317), wk =   0.0233236
        k(   96) = (   0.7143866   0.0824747  -0.9462036), wk =   0.0116618
        k(   97) = (  -0.1428773  -0.4123736   0.0000000), wk =   0.0116618
        k(   98) = (  -0.1428773  -0.4123736   0.1351719), wk =   0.0233236
        k(   99) = (  -0.1428773  -0.4123736   0.2703439), wk =   0.0233236
        k(  100) = (  -0.1428773  -0.4123736   0.4055158), wk =   0.0233236
        k(  101) = (  -0.1428773  -0.4123736   0.5406878), wk =   0.0233236
        k(  102) = (  -0.1428773  -0.4123736   0.6758597), wk =   0.0233236
        k(  103) = (  -0.1428773  -0.4123736   0.8110317), wk =   0.0233236
        k(  104) = (  -0.1428773  -0.4123736  -0.9462036), wk =   0.0116618
        k(  105) = (   0.0000000  -0.3298989   0.0000000), wk =   0.0058309
        k(  106) = (   0.0000000  -0.3298989   0.1351719), wk =   0.0116618
        k(  107) = (   0.0000000  -0.3298989   0.2703439), wk =   0.0116618
        k(  108) = (   0.0000000  -0.3298989   0.4055158), wk =   0.0116618
        k(  109) = (   0.0000000  -0.3298989   0.5406878), wk =   0.0116618
        k(  110) = (   0.0000000  -0.3298989   0.6758597), wk =   0.0116618
        k(  111) = (   0.0000000  -0.3298989   0.8110317), wk =   0.0116618
        k(  112) = (   0.0000000  -0.3298989  -0.9462036), wk =   0.0058309
        k(  113) = (   0.8572639   0.0000000   0.0000000), wk =   0.0058309
        k(  114) = (   0.8572639   0.0000000   0.1351719), wk =   0.0116618
        k(  115) = (   0.8572639   0.0000000   0.2703439), wk =   0.0116618
        k(  116) = (   0.8572639   0.0000000   0.4055158), wk =   0.0116618
        k(  117) = (   0.8572639   0.0000000   0.5406878), wk =   0.0116618
        k(  118) = (   0.8572639   0.0000000   0.6758597), wk =   0.0116618
        k(  119) = (   0.8572639   0.0000000   0.8110317), wk =   0.0116618
        k(  120) = (   0.8572639   0.0000000  -0.9462036), wk =   0.0058309
        k(  121) = (  -0.0000000  -0.4948484   0.0000000), wk =   0.0058309
        k(  122) = (  -0.0000000  -0.4948484   0.1351719), wk =   0.0116618
        k(  123) = (  -0.0000000  -0.4948484   0.2703439), wk =   0.0116618
        k(  124) = (  -0.0000000  -0.4948484   0.4055158), wk =   0.0116618
        k(  125) = (  -0.0000000  -0.4948484   0.5406878), wk =   0.0116618
        k(  126) = (  -0.0000000  -0.4948484   0.6758597), wk =   0.0116618
        k(  127) = (  -0.0000000  -0.4948484   0.8110317), wk =   0.0116618
        k(  128) = (  -0.0000000  -0.4948484  -0.9462036), wk =   0.0058309

                       cryst. coord.
        k(    1) = (   0.0000000   0.0000000   0.0000000), wk =   0.0029155
        k(    2) = (   0.0000000   0.0000000   0.0714286), wk =   0.0058309
        k(    3) = (   0.0000000   0.0000000   0.1428571), wk =   0.0058309
        k(    4) = (   0.0000000   0.0000000   0.2142857), wk =   0.0058309
        k(    5) = (   0.0000000   0.0000000   0.2857143), wk =   0.0058309
        k(    6) = (   0.0000000   0.0000000   0.3571429), wk =   0.0058309
        k(    7) = (   0.0000000   0.0000000   0.4285714), wk =   0.0058309
        k(    8) = (   0.0000000   0.0000000  -0.5000000), wk =   0.0029155
        k(    9) = (   0.0000000   0.1428571   0.0000000), wk =   0.0116618
        k(   10) = (   0.0000000   0.1428571   0.0714286), wk =   0.0233236
        k(   11) = (   0.0000000   0.1428571   0.1428571), wk =   0.0233236
        k(   12) = (   0.0000000   0.1428571   0.2142857), wk =   0.0233236
        k(   13) = (   0.0000000   0.1428571   0.2857143), wk =   0.0233236
        k(   14) = (   0.0000000   0.1428571   0.3571429), wk =   0.0233236
        k(   15) = (   0.0000000   0.1428571   0.4285714), wk =   0.0233236
        k(   16) = (   0.0000000   0.1428571  -0.5000000), wk =   0.0116618
        k(   17) = (   0.0000000   0.2857143   0.0000000), wk =   0.0116618
        k(   18) = (   0.0000000   0.2857143   0.0714286), wk =   0.0233236
        k(   19) = (   0.0000000   0.2857143   0.1428571), wk =   0.0233236
        k(   20) = (   0.0000000   0.2857143   0.2142857), wk =   0.0233236
        k(   21) = (   0.0000000   0.2857143   0.2857143), wk =   0.0233236
        k(   22) = (   0.0000000   0.2857143   0.3571429), wk =   0.0233236
        k(   23) = (   0.0000000   0.2857143   0.4285714), wk =   0.0233236
        k(   24) = (   0.0000000   0.2857143  -0.5000000), wk =   0.0116618
        k(   25) = (   0.0000000   0.4285714   0.0000000), wk =   0.0116618
        k(   26) = (   0.0000000   0.4285714   0.0714286), wk =   0.0233236
        k(   27) = (   0.0000000   0.4285714   0.1428571), wk =   0.0233236
        k(   28) = (   0.0000000   0.4285714   0.2142857), wk =   0.0233236
        k(   29) = (   0.0000000   0.4285714   0.2857143), wk =   0.0233236
        k(   30) = (   0.0000000   0.4285714   0.3571429), wk =   0.0233236
        k(   31) = (   0.0000000   0.4285714   0.4285714), wk =   0.0233236
        k(   32) = (   0.0000000   0.4285714  -0.5000000), wk =   0.0116618
        k(   33) = (   0.1428571   0.1428571   0.0000000), wk =   0.0058309
        k(   34) = (   0.1428571   0.1428571   0.0714286), wk =   0.0116618
        k(   35) = (   0.1428571   0.1428571   0.1428571), wk =   0.0116618
        k(   36) = (   0.1428571   0.1428571   0.2142857), wk =   0.0116618
        k(   37) = (   0.1428571   0.1428571   0.2857143), wk =   0.0116618
        k(   38) = (   0.1428571   0.1428571   0.3571429), wk =   0.0116618
        k(   39) = (   0.1428571   0.1428571   0.4285714), wk =   0.0116618
        k(   40) = (   0.1428571   0.1428571  -0.5000000), wk =   0.0058309
        k(   41) = (   0.1428571   0.2857143   0.0000000), wk =   0.0116618
        k(   42) = (   0.1428571   0.2857143   0.0714286), wk =   0.0233236
        k(   43) = (   0.1428571   0.2857143   0.1428571), wk =   0.0233236
        k(   44) = (   0.1428571   0.2857143   0.2142857), wk =   0.0233236
        k(   45) = (   0.1428571   0.2857143   0.2857143), wk =   0.0233236
        k(   46) = (   0.1428571   0.2857143   0.3571429), wk =   0.0233236
        k(   47) = (   0.1428571   0.2857143   0.4285714), wk =   0.0233236
        k(   48) = (   0.1428571   0.2857143  -0.5000000), wk =   0.0116618
        k(   49) = (   0.1428571   0.4285714   0.0000000), wk =   0.0116618
        k(   50) = (   0.1428571   0.4285714   0.0714286), wk =   0.0233236
        k(   51) = (   0.1428571   0.4285714   0.1428571), wk =   0.0233236
        k(   52) = (   0.1428571   0.4285714   0.2142857), wk =   0.0233236
        k(   53) = (   0.1428571   0.4285714   0.2857143), wk =   0.0233236
        k(   54) = (   0.1428571   0.4285714   0.3571429), wk =   0.0233236
        k(   55) = (   0.1428571   0.4285714   0.4285714), wk =   0.0233236
        k(   56) = (   0.1428571   0.4285714  -0.5000000), wk =   0.0116618
        k(   57) = (   0.1428571  -0.4285714   0.0000000), wk =   0.0116618
        k(   58) = (   0.1428571  -0.4285714   0.0714286), wk =   0.0233236
        k(   59) = (   0.1428571  -0.4285714   0.1428571), wk =   0.0233236
        k(   60) = (   0.1428571  -0.4285714   0.2142857), wk =   0.0233236
        k(   61) = (   0.1428571  -0.4285714   0.2857143), wk =   0.0233236
        k(   62) = (   0.1428571  -0.4285714   0.3571429), wk =   0.0233236
        k(   63) = (   0.1428571  -0.4285714   0.4285714), wk =   0.0233236
        k(   64) = (   0.1428571  -0.4285714  -0.5000000), wk =   0.0116618
        k(   65) = (   0.1428571  -0.2857143   0.0000000), wk =   0.0116618
        k(   66) = (   0.1428571  -0.2857143   0.0714286), wk =   0.0233236
        k(   67) = (   0.1428571  -0.2857143   0.1428571), wk =   0.0233236
        k(   68) = (   0.1428571  -0.2857143   0.2142857), wk =   0.0233236
        k(   69) = (   0.1428571  -0.2857143   0.2857143), wk =   0.0233236
        k(   70) = (   0.1428571  -0.2857143   0.3571429), wk =   0.0233236
        k(   71) = (   0.1428571  -0.2857143   0.4285714), wk =   0.0233236
        k(   72) = (   0.1428571  -0.2857143  -0.5000000), wk =   0.0116618
        k(   73) = (   0.1428571  -0.1428571   0.0000000), wk =   0.0058309
        k(   74) = (   0.1428571  -0.1428571   0.0714286), wk =   0.0116618
        k(   75) = (   0.1428571  -0.1428571   0.1428571), wk =   0.0116618
        k(   76) = (   0.1428571  -0.1428571   0.2142857), wk =   0.0116618
        k(   77) = (   0.1428571  -0.1428571   0.2857143), wk =   0.0116618
        k(   78) = (   0.1428571  -0.1428571   0.3571429), wk =   0.0116618
        k(   79) = (   0.1428571  -0.1428571   0.4285714), wk =   0.0116618
        k(   80) = (   0.1428571  -0.1428571  -0.5000000), wk =   0.0058309
        k(   81) = (   0.2857143   0.2857143   0.0000000), wk =   0.0058309
        k(   82) = (   0.2857143   0.2857143   0.0714286), wk =   0.0116618
        k(   83) = (   0.2857143   0.2857143   0.1428571), wk =   0.0116618
        k(   84) = (   0.2857143   0.2857143   0.2142857), wk =   0.0116618
        k(   85) = (   0.2857143   0.2857143   0.2857143), wk =   0.0116618
        k(   86) = (   0.2857143   0.2857143   0.3571429), wk =   0.0116618
        k(   87) = (   0.2857143   0.2857143   0.4285714), wk =   0.0116618
        k(   88) = (   0.2857143   0.2857143  -0.5000000), wk =   0.0058309
        k(   89) = (   0.2857143   0.4285714   0.0000000), wk =   0.0116618
        k(   90) = (   0.2857143   0.4285714   0.0714286), wk =   0.0233236
        k(   91) = (   0.2857143   0.4285714   0.1428571), wk =   0.0233236
        k(   92) = (   0.2857143   0.4285714   0.2142857), wk =   0.0233236
        k(   93) = (   0.2857143   0.4285714   0.2857143), wk =   0.0233236
        k(   94) = (   0.2857143   0.4285714   0.3571429), wk =   0.0233236
        k(   95) = (   0.2857143   0.4285714   0.4285714), wk =   0.0233236
        k(   96) = (   0.2857143   0.4285714  -0.5000000), wk =   0.0116618
        k(   97) = (   0.2857143  -0.4285714   0.0000000), wk =   0.0116618
        k(   98) = (   0.2857143  -0.4285714   0.0714286), wk =   0.0233236
        k(   99) = (   0.2857143  -0.4285714   0.1428571), wk =   0.0233236
        k(  100) = (   0.2857143  -0.4285714   0.2142857), wk =   0.0233236
        k(  101) = (   0.2857143  -0.4285714   0.2857143), wk =   0.0233236
        k(  102) = (   0.2857143  -0.4285714   0.3571429), wk =   0.0233236
        k(  103) = (   0.2857143  -0.4285714   0.4285714), wk =   0.0233236
        k(  104) = (   0.2857143  -0.4285714  -0.5000000), wk =   0.0116618
        k(  105) = (   0.2857143  -0.2857143   0.0000000), wk =   0.0058309
        k(  106) = (   0.2857143  -0.2857143   0.0714286), wk =   0.0116618
        k(  107) = (   0.2857143  -0.2857143   0.1428571), wk =   0.0116618
        k(  108) = (   0.2857143  -0.2857143   0.2142857), wk =   0.0116618
        k(  109) = (   0.2857143  -0.2857143   0.2857143), wk =   0.0116618
        k(  110) = (   0.2857143  -0.2857143   0.3571429), wk =   0.0116618
        k(  111) = (   0.2857143  -0.2857143   0.4285714), wk =   0.0116618
        k(  112) = (   0.2857143  -0.2857143  -0.5000000), wk =   0.0058309
        k(  113) = (   0.4285714   0.4285714   0.0000000), wk =   0.0058309
        k(  114) = (   0.4285714   0.4285714   0.0714286), wk =   0.0116618
        k(  115) = (   0.4285714   0.4285714   0.1428571), wk =   0.0116618
        k(  116) = (   0.4285714   0.4285714   0.2142857), wk =   0.0116618
        k(  117) = (   0.4285714   0.4285714   0.2857143), wk =   0.0116618
        k(  118) = (   0.4285714   0.4285714   0.3571429), wk =   0.0116618
        k(  119) = (   0.4285714   0.4285714   0.4285714), wk =   0.0116618
        k(  120) = (   0.4285714   0.4285714  -0.5000000), wk =   0.0058309
        k(  121) = (   0.4285714  -0.4285714   0.0000000), wk =   0.0058309
        k(  122) = (   0.4285714  -0.4285714   0.0714286), wk =   0.0116618
        k(  123) = (   0.4285714  -0.4285714   0.1428571), wk =   0.0116618
        k(  124) = (   0.4285714  -0.4285714   0.2142857), wk =   0.0116618
        k(  125) = (   0.4285714  -0.4285714   0.2857143), wk =   0.0116618
        k(  126) = (   0.4285714  -0.4285714   0.3571429), wk =   0.0116618
        k(  127) = (   0.4285714  -0.4285714   0.4285714), wk =   0.0116618
        k(  128) = (   0.4285714  -0.4285714  -0.5000000), wk =   0.0058309

     Dense  grid:   209819 G-vectors     FFT dimensions: (  96,  96,  54)

     Smooth grid:    74261 G-vectors     FFT dimensions: (  72,  72,  36)

     Dynamical RAM for                 wfc:       2.64 MB

     Dynamical RAM for     wfc (w. buffer):       2.64 MB

     Dynamical RAM for           str. fact:       1.20 MB

     Dynamical RAM for           local pot:       0.00 MB

     Dynamical RAM for          nlocal pot:       2.05 MB

     Dynamical RAM for                qrad:      12.65 MB

     Dynamical RAM for          rho,v,vnew:       2.68 MB

     Dynamical RAM for           G-vectors:       1.57 MB

     Dynamical RAM for          h,s,v(r/c):       4.07 MB

     Dynamical RAM for          <psi|beta>:       0.26 MB

     Dynamical RAM for                 psi:       5.27 MB

     Dynamical RAM for                hpsi:       5.27 MB

     Dynamical RAM for                spsi:       5.27 MB

     Dynamical RAM for      wfcinit/wfcrot:       5.78 MB

     Dynamical RAM for           addusdens:     224.53 MB

     Estimated static dynamical RAM per process >      26.85 MB

     Estimated max dynamical RAM per process >     251.39 MB

     Estimated total dynamical RAM >       1.96 GB

     The potential is recalculated from file :
     ./pwscf.save/charge-density

     Starting wfcs are   82 randomized atomic wfcs +   67 random wfcs
     Checking if some PAW data can be deallocated... 
       PAW data deallocated on    7 nodes for type:  3

     Band Structure Calculation
     Davidson diagonalization with overlap

     Computing kpt #:     1  of   128
     total cpu time spent up to now is       53.8 secs

     Computing kpt #:     2  of   128
     total cpu time spent up to now is       98.7 secs

     Computing kpt #:     3  of   128
     total cpu time spent up to now is      148.2 secs

     Computing kpt #:     4  of   128
     c_bands:  1 eigenvalues not converged
     total cpu time spent up to now is      203.6 secs

     Computing kpt #:     5  of   128
     total cpu time spent up to now is      251.6 secs

     Computing kpt #:     6  of   128
     total cpu time spent up to now is      291.9 secs

     Computing kpt #:     7  of   128
     total cpu time spent up to now is      331.2 secs

     Computing kpt #:     8  of   128
     total cpu time spent up to now is      375.6 secs

     Computing kpt #:     9  of   128
     total cpu time spent up to now is      426.2 secs

     Computing kpt #:    10  of   128
     total cpu time spent up to now is      471.8 secs

     Computing kpt #:    11  of   128
     total cpu time spent up to now is      512.4 secs

     Computing kpt #:    12  of   128
     total cpu time spent up to now is      559.9 secs

     Computing kpt #:    13  of   128
     total cpu time spent up to now is      603.3 secs

     Computing kpt #:    14  of   128
     total cpu time spent up to now is      644.1 secs

     Computing kpt #:    15  of   128
     total cpu time spent up to now is      684.9 secs

     Computing kpt #:    16  of   128
     total cpu time spent up to now is      727.1 secs

     Computing kpt #:    17  of   128
     total cpu time spent up to now is      777.8 secs

     Computing kpt #:    18  of   128
     total cpu time spent up to now is      838.3 secs

     Computing kpt #:    19  of   128
     total cpu time spent up to now is      907.7 secs

     Computing kpt #:    20  of   128
     total cpu time spent up to now is      950.4 secs

     Computing kpt #:    21  of   128
     total cpu time spent up to now is      993.3 secs

     Computing kpt #:    22  of   128
     total cpu time spent up to now is     1037.0 secs

     Computing kpt #:    23  of   128
     total cpu time spent up to now is     1072.7 secs

     Computing kpt #:    24  of   128
     total cpu time spent up to now is     1087.4 secs

     Computing kpt #:    25  of   128
     total cpu time spent up to now is     1102.1 secs

     Computing kpt #:    26  of   128
     total cpu time spent up to now is     1119.0 secs

     Computing kpt #:    27  of   128
     total cpu time spent up to now is     1134.0 secs

     Computing kpt #:    28  of   128
     total cpu time spent up to now is     1150.8 secs

     Computing kpt #:    29  of   128
     total cpu time spent up to now is     1164.5 secs

     Computing kpt #:    30  of   128
     total cpu time spent up to now is     1182.1 secs

     Computing kpt #:    31  of   128
     total cpu time spent up to now is     1195.4 secs

     Computing kpt #:    32  of   128
     total cpu time spent up to now is     1210.3 secs

     Computing kpt #:    33  of   128
     total cpu time spent up to now is     1226.5 secs

     Computing kpt #:    34  of   128
     total cpu time spent up to now is     1243.0 secs

     Computing kpt #:    35  of   128
     total cpu time spent up to now is     1258.1 secs

     Computing kpt #:    36  of   128
     total cpu time spent up to now is     1273.5 secs

     Computing kpt #:    37  of   128
     total cpu time spent up to now is     1291.9 secs

     Computing kpt #:    38  of   128
     total cpu time spent up to now is     1307.6 secs

     Computing kpt #:    39  of   128
     total cpu time spent up to now is     1322.9 secs

     Computing kpt #:    40  of   128
     total cpu time spent up to now is     1337.8 secs

     Computing kpt #:    41  of   128
     total cpu time spent up to now is     1351.9 secs

     Computing kpt #:    42  of   128
     total cpu time spent up to now is     1367.4 secs

     Computing kpt #:    43  of   128
     total cpu time spent up to now is     1383.6 secs

     Computing kpt #:    44  of   128
     total cpu time spent up to now is     1400.1 secs

     Computing kpt #:    45  of   128
     total cpu time spent up to now is     1418.3 secs

     Computing kpt #:    46  of   128
     total cpu time spent up to now is     1433.3 secs

     Computing kpt #:    47  of   128
     total cpu time spent up to now is     1448.8 secs

     Computing kpt #:    48  of   128
     total cpu time spent up to now is     1462.4 secs

     Computing kpt #:    49  of   128
     total cpu time spent up to now is     1478.9 secs

     Computing kpt #:    50  of   128
     total cpu time spent up to now is     1496.7 secs

     Computing kpt #:    51  of   128
     total cpu time spent up to now is     1512.6 secs

     Computing kpt #:    52  of   128
     total cpu time spent up to now is     1528.9 secs

     Computing kpt #:    53  of   128
     total cpu time spent up to now is     1543.9 secs

     Computing kpt #:    54  of   128
     total cpu time spent up to now is     1560.5 secs

     Computing kpt #:    55  of   128
     total cpu time spent up to now is     1575.8 secs

     Computing kpt #:    56  of   128
     total cpu time spent up to now is     1589.0 secs

     Computing kpt #:    57  of   128
     total cpu time spent up to now is     1603.4 secs

     Computing kpt #:    58  of   128
     total cpu time spent up to now is     1618.4 secs

     Computing kpt #:    59  of   128
     total cpu time spent up to now is     1633.6 secs

     Computing kpt #:    60  of   128
     total cpu time spent up to now is     1650.0 secs

     Computing kpt #:    61  of   128
     total cpu time spent up to now is     1665.4 secs

     Computing kpt #:    62  of   128
     total cpu time spent up to now is     1680.8 secs

     Computing kpt #:    63  of   128
     total cpu time spent up to now is     1696.3 secs

     Computing kpt #:    64  of   128
     total cpu time spent up to now is     1709.5 secs

     Computing kpt #:    65  of   128
     total cpu time spent up to now is     1726.1 secs

     Computing kpt #:    66  of   128
     total cpu time spent up to now is     1742.4 secs

     Computing kpt #:    67  of   128
     total cpu time spent up to now is     1757.6 secs

     Computing kpt #:    68  of   128
     total cpu time spent up to now is     1773.4 secs

     Computing kpt #:    69  of   128
     total cpu time spent up to now is     1789.8 secs

     Computing kpt #:    70  of   128
     total cpu time spent up to now is     1806.0 secs

     Computing kpt #:    71  of   128
     total cpu time spent up to now is     1822.1 secs

     Computing kpt #:    72  of   128
     total cpu time spent up to now is     1834.9 secs

     Computing kpt #:    73  of   128
     total cpu time spent up to now is     1856.3 secs

     Computing kpt #:    74  of   128
     total cpu time spent up to now is     1871.5 secs

     Computing kpt #:    75  of   128
     total cpu time spent up to now is     1886.2 secs

     Computing kpt #:    76  of   128
     total cpu time spent up to now is     1901.7 secs

     Computing kpt #:    77  of   128
     total cpu time spent up to now is     1918.5 secs

     Computing kpt #:    78  of   128
     total cpu time spent up to now is     1936.0 secs

     Computing kpt #:    79  of   128
     total cpu time spent up to now is     1952.2 secs

     Computing kpt #:    80  of   128
     total cpu time spent up to now is     1966.6 secs

     Computing kpt #:    81  of   128
     total cpu time spent up to now is     1982.0 secs

     Computing kpt #:    82  of   128
     total cpu time spent up to now is     1997.6 secs

     Computing kpt #:    83  of   128
     total cpu time spent up to now is     2013.8 secs

     Computing kpt #:    84  of   128
     total cpu time spent up to now is     2032.0 secs

     Computing kpt #:    85  of   128
     total cpu time spent up to now is     2048.2 secs

     Computing kpt #:    86  of   128
     total cpu time spent up to now is     2063.8 secs

     Computing kpt #:    87  of   128
     total cpu time spent up to now is     2078.8 secs

     Computing kpt #:    88  of   128
     total cpu time spent up to now is     2092.8 secs

     Computing kpt #:    89  of   128
     total cpu time spent up to now is     2109.2 secs

     Computing kpt #:    90  of   128
     total cpu time spent up to now is     2124.9 secs

     Computing kpt #:    91  of   128
     total cpu time spent up to now is     2141.3 secs

     Computing kpt #:    92  of   128
     total cpu time spent up to now is     2158.2 secs

     Computing kpt #:    93  of   128
     total cpu time spent up to now is     2174.1 secs

     Computing kpt #:    94  of   128
     total cpu time spent up to now is     2189.2 secs

     Computing kpt #:    95  of   128
     total cpu time spent up to now is     2202.8 secs

     Computing kpt #:    96  of   128
     total cpu time spent up to now is     2220.1 secs

     Computing kpt #:    97  of   128
     total cpu time spent up to now is     2234.7 secs

     Computing kpt #:    98  of   128
     total cpu time spent up to now is     2250.1 secs

     Computing kpt #:    99  of   128
     total cpu time spent up to now is     2265.4 secs

     Computing kpt #:   100  of   128
     total cpu time spent up to now is     2282.4 secs

     Computing kpt #:   101  of   128
     total cpu time spent up to now is     2298.0 secs

     Computing kpt #:   102  of   128
     total cpu time spent up to now is     2313.6 secs

     Computing kpt #:   103  of   128
     total cpu time spent up to now is     2329.4 secs

     Computing kpt #:   104  of   128
     total cpu time spent up to now is     2342.5 secs

     Computing kpt #:   105  of   128
     total cpu time spent up to now is     2358.6 secs

     Computing kpt #:   106  of   128
     total cpu time spent up to now is     2374.4 secs

     Computing kpt #:   107  of   128
     total cpu time spent up to now is     2391.2 secs

     Computing kpt #:   108  of   128
     total cpu time spent up to now is     2406.4 secs

     Computing kpt #:   109  of   128
     total cpu time spent up to now is     2421.9 secs

     Computing kpt #:   110  of   128
     total cpu time spent up to now is     2437.1 secs

     Computing kpt #:   111  of   128
     total cpu time spent up to now is     2452.7 secs

     Computing kpt #:   112  of   128
     total cpu time spent up to now is     2467.5 secs

     Computing kpt #:   113  of   128
     total cpu time spent up to now is     2484.1 secs

     Computing kpt #:   114  of   128
     total cpu time spent up to now is     2501.3 secs

     Computing kpt #:   115  of   128
     total cpu time spent up to now is     2516.6 secs

     Computing kpt #:   116  of   128
     total cpu time spent up to now is     2532.1 secs

     Computing kpt #:   117  of   128
     total cpu time spent up to now is     2547.5 secs

     Computing kpt #:   118  of   128
     total cpu time spent up to now is     2563.0 secs

     Computing kpt #:   119  of   128
     total cpu time spent up to now is     2579.6 secs

     Computing kpt #:   120  of   128
     total cpu time spent up to now is     2593.0 secs

     Computing kpt #:   121  of   128
     total cpu time spent up to now is     2607.4 secs

     Computing kpt #:   122  of   128
     total cpu time spent up to now is     2623.7 secs

     Computing kpt #:   123  of   128
     total cpu time spent up to now is     2639.7 secs

     Computing kpt #:   124  of   128
     total cpu time spent up to now is     2655.8 secs

     Computing kpt #:   125  of   128
     total cpu time spent up to now is     2672.9 secs

     Computing kpt #:   126  of   128
     total cpu time spent up to now is     2690.6 secs

     Computing kpt #:   127  of   128
     total cpu time spent up to now is     2703.9 secs

     Computing kpt #:   128  of   128
     total cpu time spent up to now is     2717.7 secs

     ethr =  1.37E-11,  avg # of iterations = 60.5

     total cpu time spent up to now is     2717.7 secs

     End of band structure calculation

          k = 0.0000 0.0000 0.0000 (  9257 PWs)   bands (ev):

   -30.8052 -17.0339 -17.0326 -17.0188 -16.3511 -16.3422 -16.2524 -14.3458
   -14.3197 -12.3163 -11.9057 -11.9053  -1.6698  -1.6696  -1.1081  -1.1078
    -0.7841  -0.5524   0.3472   0.9132   0.9211   1.3226   1.3264   1.6180
     1.7413   1.7697   1.9509   1.9530   2.4443   2.4529   2.5478   2.5499
     2.7454   2.7458   2.7871   2.9012   4.2437   4.2640   4.2940   4.2946
     4.3584   4.4980   4.4985   9.9900  10.7945  10.7960  11.0820  11.5756
    11.7580  12.1874  12.1943  13.0852  13.0856  13.5264  13.5298  14.8041
    14.8043  15.9606  15.9613  16.2099  17.0455  17.0458  17.3463  17.7226
    17.9282  17.9287  19.7056  19.7090  20.1970  20.3308  20.3343  21.3126
    21.3841  21.4161  21.4361  21.4385  22.5771  22.9228  22.9242  23.1366
    23.1393  23.6666  23.8072  24.0543  24.1875  24.9418  24.9440  25.9113
    25.9164  26.2177  26.2824  26.2851  27.0951  28.0364  28.1482  28.1521
    28.1672  28.3019  28.3084  29.0216  29.9544  30.0228  30.0242  30.9062
    30.9077  31.0152  31.4166  31.4190  31.7614  31.7662  32.1225  32.2918
    32.6413  33.6854  33.6858  33.8159  34.6975  34.9793  34.9813  35.1528
    35.5675  35.6580  35.6582  36.4348  36.6331  36.6343  36.9403  36.9503
    37.3111  37.3157  37.6200  37.8708  38.3621  38.7255  38.8296  38.8363
    39.1508  39.1527  39.9214  39.9830  39.9876  40.0411  40.6948  40.7010
    41.0583  41.6908  41.7704  41.7741  41.8605

     occupation numbers 
     1.0000   1.0000   1.0000   1.0000   1.0000   1.0000   1.0000   1.0000
     1.0000   1.0000   1.0000   1.0000   1.0000   1.0000   1.0000   1.0000
     1.0000   1.0000   1.0000   1.0000   1.0000   1.0000   1.0000   1.0000
     1.0000   1.0000   1.0000   1.0000   1.0000   1.0000   1.0000   1.0000
     1.0000   1.0000   1.0000   1.0000   0.1606   0.0705   0.0154   0.0148
     0.0002   0.0000   0.0000   0.0000   0.0000   0.0000   0.0000   0.0000
     0.0000   0.0000   0.0000   0.0000   0.0000   0.0000   0.0000   0.0000
     0.0000   0.0000   0.0000   0.0000   0.0000   0.0000   0.0000   0.0000
     0.0000   0.0000   0.0000   0.0000   0.0000   0.0000   0.0000   0.0000
     0.0000   0.0000   0.0000   0.0000   0.0000   0.0000   0.0000   0.0000
     0.0000   0.0000   0.0000   0.0000   0.0000   0.0000   0.0000   0.0000
     0.0000   0.0000   0.0000   0.0000   0.0000   0.0000   0.0000   0.0000
     0.0000   0.0000   0.0000   0.0000   0.0000   0.0000   0.0000   0.0000
     0.0000   0.0000   0.0000   0.0000   0.0000   0.0000   0.0000   0.0000
     0.0000   0.0000   0.0000   0.0000   0.0000   0.0000   0.0000   0.0000
     0.0000   0.0000   0.0000   0.0000   0.0000   0.0000   0.0000   0.0000
     0.0000   0.0000   0.0000   0.0000   0.0000   0.0000   0.0000   0.0000
     0.0000   0.0000   0.0000   0.0000   0.0000   0.0000   0.0000   0.0000
     0.0000   0.0000   0.0000   0.0000   0.0000

          k = 0.0000 0.0000 0.1352 (  9258 PWs)   bands (ev):

   -30.8029 -17.0448 -17.0241 -17.0196 -16.3544 -16.3455 -16.2540 -14.3387
   -14.3170 -12.2905 -11.9186 -11.9181  -1.6656  -1.6655  -1.1040  -1.1038
    -0.8554  -0.6487   0.3809   0.9013   0.9080   1.3656   1.3685   1.5657
     1.7755   1.8185   1.9467   1.9487   2.4234   2.4300   2.5372   2.5378
     2.7611   2.7614   2.7912   2.8605   4.2439   4.2577   4.2906   4.2912
     4.3680   4.4940   4.4945  10.1249  10.7791  10.7806  11.1480  11.7597
    11.8382  12.1792  12.1855  13.1083  13.1086  13.5380  13.5410  14.5912
    14.5912  15.6309  15.6314  16.2465  17.3142  17.3145  17.3854  17.7323
    18.2980  18.2990  19.7763  19.7796  20.0542  20.4176  20.4209  21.3027
    21.3377  21.3402  21.3828  21.4116  22.4118  22.5542  22.5543  23.4829
    23.4839  23.5712  23.8796  24.1169  24.1974  25.0129  25.0151  25.6815
    25.6866  26.2450  26.5072  26.5087  27.2526  27.6946  28.0275  28.0879
    28.0882  28.4326  28.4358  28.8277  29.4169  30.0309  30.0321  31.0505
    31.0524  31.0532  31.4108  31.4142  31.4254  31.8266  31.8310  32.4005
    33.2627  33.6849  33.6928  33.6934  34.5063  34.7232  34.7251  35.1769
    35.4478  35.4494  36.1576  36.4208  36.4225  36.8353  37.0983  37.1071
    37.4042  37.4081  37.4515  38.0079  38.4991  38.5037  38.6535  38.6613
    39.2367  39.2377  39.7121  39.7153  39.8101  40.0229  40.9095  40.9152
    41.4746  41.7729  41.7769  41.9074  42.0940

     occupation numbers 
     1.0000   1.0000   1.0000   1.0000   1.0000   1.0000   1.0000   1.0000
     1.0000   1.0000   1.0000   1.0000   1.0000   1.0000   1.0000   1.0000
     1.0000   1.0000   1.0000   1.0000   1.0000   1.0000   1.0000   1.0000
     1.0000   1.0000   1.0000   1.0000   1.0000   1.0000   1.0000   1.0000
     1.0000   1.0000   1.0000   1.0000   0.1596   0.0929   0.0186   0.0180
     0.0001   0.0000   0.0000   0.0000   0.0000   0.0000   0.0000   0.0000
     0.0000   0.0000   0.0000   0.0000   0.0000   0.0000   0.0000   0.0000
     0.0000   0.0000   0.0000   0.0000   0.0000   0.0000   0.0000   0.0000
     0.0000   0.0000   0.0000   0.0000   0.0000   0.0000   0.0000   0.0000
     0.0000   0.0000   0.0000   0.0000   0.0000   0.0000   0.0000   0.0000
     0.0000   0.0000   0.0000   0.0000   0.0000   0.0000   0.0000   0.0000
     0.0000   0.0000   0.0000   0.0000   0.0000   0.0000   0.0000   0.0000
     0.0000   0.0000   0.0000   0.0000   0.0000   0.0000   0.0000   0.0000
     0.0000   0.0000   0.0000   0.0000   0.0000   0.0000   0.0000   0.0000
     0.0000   0.0000   0.0000   0.0000   0.0000   0.0000   0.0000   0.0000
     0.0000   0.0000   0.0000   0.0000   0.0000   0.0000   0.0000   0.0000
     0.0000   0.0000   0.0000   0.0000   0.0000   0.0000   0.0000   0.0000
     0.0000   0.0000   0.0000   0.0000   0.0000   0.0000   0.0000   0.0000
     0.0000   0.0000   0.0000   0.0000   0.0000

          k = 0.0000 0.0000 0.2703 (  9228 PWs)   bands (ev):

   -30.7965 -17.1083 -16.9959 -16.9921 -16.3643 -16.3552 -16.2567 -14.3186
   -14.3096 -12.2199 -11.9548 -11.9541  -1.6550  -1.6550  -1.0907  -1.0905
    -1.0471  -0.8987   0.4747   0.8871   0.8919   1.4645   1.4668   1.4800
     1.8611   1.8929   1.9301   1.9318   2.3856   2.3893   2.4951   2.4960
     2.7518   2.7929   2.7977   2.8011   4.2444   4.2445   4.2820   4.2826
     4.3897   4.4815   4.4821  10.4647  10.7491  10.7505  11.3350  12.1149
    12.1463  12.1511  12.2961  13.1370  13.1371  13.5607  13.5624  14.1731
    14.1737  15.0887  15.0892  16.3507  17.4913  17.7603  17.7894  17.7902
    18.9626  18.9640  19.7270  20.0449  20.0477  20.6907  20.6935  21.1426
    21.1453  21.2473  21.3785  21.3945  22.0456  22.1700  22.1705  23.2951
    23.8001  23.8005  23.9988  24.2201  24.2893  25.1148  25.1162  25.3966
    25.4012  26.2666  26.6855  26.8424  26.8430  27.3096  28.0102  28.0605
    28.0614  28.1690  28.3799  28.7026  28.7055  30.0124  30.0132  30.6431
    31.3962  31.3985  31.5002  31.5010  31.5257  31.8464  32.0175  32.0214
    33.6429  33.6439  33.8905  34.1230  34.1240  34.1517  34.3289  35.0275
    35.0311  35.3255  35.8147  35.8161  36.9518  37.1485  37.1904  37.1954
    37.3417  37.4965  37.4994  37.9226  38.4831  38.4880  38.7664  38.7685
    39.2607  39.2612  39.4434  39.4464  39.7860  40.0160  41.0780  41.0801
    41.3880  41.3910  41.9367  41.9428  41.9705

     occupation numbers 
     1.0000   1.0000   1.0000   1.0000   1.0000   1.0000   1.0000   1.0000
     1.0000   1.0000   1.0000   1.0000   1.0000   1.0000   1.0000   1.0000
     1.0000   1.0000   1.0000   1.0000   1.0000   1.0000   1.0000   1.0000
     1.0000   1.0000   1.0000   1.0000   1.0000   1.0000   1.0000   1.0000
     1.0000   1.0000   1.0000   1.0000   0.1565   0.1561   0.0296   0.0287
     0.0000   0.0000   0.0000   0.0000   0.0000   0.0000   0.0000   0.0000
     0.0000   0.0000   0.0000   0.0000   0.0000   0.0000   0.0000   0.0000
     0.0000   0.0000   0.0000   0.0000   0.0000   0.0000   0.0000   0.0000
     0.0000   0.0000   0.0000   0.0000   0.0000   0.0000   0.0000   0.0000
     0.0000   0.0000   0.0000   0.0000   0.0000   0.0000   0.0000   0.0000
     0.0000   0.0000   0.0000   0.0000   0.0000   0.0000   0.0000   0.0000
     0.0000   0.0000   0.0000   0.0000   0.0000   0.0000   0.0000   0.0000
     0.0000   0.0000   0.0000   0.0000   0.0000   0.0000   0.0000   0.0000
     0.0000   0.0000   0.0000   0.0000   0.0000   0.0000   0.0000   0.0000
     0.0000   0.0000   0.0000   0.0000   0.0000   0.0000   0.0000   0.0000
     0.0000   0.0000   0.0000   0.0000   0.0000   0.0000   0.0000   0.0000
     0.0000   0.0000   0.0000   0.0000   0.0000   0.0000   0.0000   0.0000
     0.0000   0.0000   0.0000   0.0000   0.0000   0.0000   0.0000   0.0000
     0.0000   0.0000   0.0000   0.0000   0.0000

          k = 0.0000 0.0000 0.4055 (  9240 PWs)   bands (ev):

   -30.7873 -17.2012 -16.9525 -16.9486 -16.3810 -16.3716 -16.2566 -14.2985
   -14.2892 -12.1220 -12.0073 -12.0062  -1.6430  -1.6427  -1.3060  -1.2220
    -1.0661  -1.0661   0.6088   0.8976   0.9008   1.3987   1.5719   1.5730
     1.8959   1.8967   1.9528   1.9707   2.3654   2.3673   2.4259   2.4261
     2.6081   2.7860   2.8353   2.8377   4.2314   4.2454   4.2713   4.2719
     4.4138   4.4597   4.4604  10.7368  10.7381  10.8332  11.6396  12.0665
    12.0698  12.6583  13.0752  13.0762  13.1426  13.5401  13.5404  13.8087
    13.8103  14.7310  14.7328  16.5098  17.6266  17.8036  18.1299  18.1314
    19.3381  19.3395  19.4017  20.6053  20.6058  20.8855  20.8864  21.0852
    21.3188  21.3207  21.3588  21.3815  21.6481  22.0726  22.0732  22.9365
    23.9393  23.9425  24.0441  24.2539  24.4180  24.9451  24.9460  25.3528
    25.3545  25.4663  26.1317  26.4290  27.0562  27.2025  27.2045  27.6644
    28.1396  28.1398  28.1700  29.0783  29.0822  29.9642  29.9644  30.6914
    31.4685  31.4712  31.6991  31.8020  31.9885  31.9890  32.3842  32.3866
    33.2215  33.2239  33.5447  33.5474  34.1030  34.3467  34.5872  34.5914
    34.6997  35.0352  35.0358  35.6400  36.8109  36.8124  36.9022  37.3244
    37.4308  37.4445  37.4449  37.4832  38.5056  38.5088  38.9795  38.9858
    39.0989  39.5394  39.5407  39.9131  40.0568  40.1343  40.4609  40.4615
    41.1873  41.1884  41.4317  41.4376  42.4733

     occupation numbers 
     1.0000   1.0000   1.0000   1.0000   1.0000   1.0000   1.0000   1.0000
     1.0000   1.0000   1.0000   1.0000   1.0000   1.0000   1.0000   1.0000
     1.0000   1.0000   1.0000   1.0000   1.0000   1.0000   1.0000   1.0000
     1.0000   1.0000   1.0000   1.0000   1.0000   1.0000   1.0000   1.0000
     1.0000   1.0000   1.0000   1.0000   0.2447   0.1509   0.0503   0.0490
     0.0000   0.0000   0.0000   0.0000   0.0000   0.0000   0.0000   0.0000
     0.0000   0.0000   0.0000   0.0000   0.0000   0.0000   0.0000   0.0000
     0.0000   0.0000   0.0000   0.0000   0.0000   0.0000   0.0000   0.0000
     0.0000   0.0000   0.0000   0.0000   0.0000   0.0000   0.0000   0.0000
     0.0000   0.0000   0.0000   0.0000   0.0000   0.0000   0.0000   0.0000
     0.0000   0.0000   0.0000   0.0000   0.0000   0.0000   0.0000   0.0000
     0.0000   0.0000   0.0000   0.0000   0.0000   0.0000   0.0000   0.0000
     0.0000   0.0000   0.0000   0.0000   0.0000   0.0000   0.0000   0.0000
     0.0000   0.0000   0.0000   0.0000   0.0000   0.0000   0.0000   0.0000
     0.0000   0.0000   0.0000   0.0000   0.0000   0.0000   0.0000   0.0000
     0.0000   0.0000   0.0000   0.0000   0.0000   0.0000   0.0000   0.0000
     0.0000   0.0000   0.0000   0.0000   0.0000   0.0000   0.0000   0.0000
     0.0000   0.0000   0.0000   0.0000   0.0000   0.0000   0.0000   0.0000
     0.0000   0.0000   0.0000   0.0000   0.0000

          k = 0.0000 0.0000 0.5407 (  9246 PWs)   bands (ev):

   -30.7770 -17.3032 -16.8996 -16.8953 -16.4040 -16.3941 -16.2527 -14.2858
   -14.2561 -12.0658 -12.0642 -12.0186  -1.6342  -1.6336  -1.5733  -1.5440
    -1.0308  -1.0308   0.7534   0.9409   0.9432   1.3375   1.6282   1.6302
     1.8699   1.8700   1.9892   2.0884   2.3237   2.3273   2.3909   2.3952
     2.4646   2.7526   2.8632   2.8668   4.2211   4.2467   4.2619   4.2624
     4.4309   4.4316   4.4350  10.7654  10.7671  11.0853  11.9204  11.9226
    12.0559  12.8938  12.8951  13.4240  13.4252  13.4448  13.5765  13.5773
    14.2388  14.7047  14.7068  16.7235  17.7455  17.8568  18.2164  18.2191
    19.2241  19.4113  19.4129  20.4998  20.5016  20.7924  21.1937  21.3760
    21.4290  21.4788  21.4794  21.9825  21.9831  22.5131  22.5965  22.5966
    23.8218  23.9702  23.9754  24.1388  24.2884  24.4223  24.6759  24.6760
    25.3010  25.3014  25.3168  25.4681  26.2567  27.2153  27.5811  27.5832
    28.1635  28.2322  28.2340  29.5770  29.5808  29.9010  29.9013  31.4675
    31.4684  31.4714  32.0232  32.0388  32.1212  32.1223  32.2649  32.2664
    33.1304  33.1307  33.3487  33.3498  33.7450  34.1347  34.1363  34.3849
    34.3893  34.8095  34.9862  36.0000  36.4162  36.4202  36.8026  37.0163
    37.0221  37.1618  37.2621  37.6133  38.4105  38.4143  38.8203  38.8211
    39.2964  39.2986  39.5023  39.8901  39.8911  40.3218  40.3689  41.0135
    41.0590  41.0610  41.2878  41.2892  42.6343

     occupation numbers 
     1.0000   1.0000   1.0000   1.0000   1.0000   1.0000   1.0000   1.0000
     1.0000   1.0000   1.0000   1.0000   1.0000   1.0000   1.0000   1.0000
     1.0000   1.0000   1.0000   1.0000   1.0000   1.0000   1.0000   1.0000
     1.0000   1.0000   1.0000   1.0000   1.0000   1.0000   1.0000   1.0000
     1.0000   1.0000   1.0000   1.0000   0.3323   0.1437   0.0775   0.0757
     0.0000   0.0000   0.0000   0.0000   0.0000   0.0000   0.0000   0.0000
     0.0000   0.0000   0.0000   0.0000   0.0000   0.0000   0.0000   0.0000
     0.0000   0.0000   0.0000   0.0000   0.0000   0.0000   0.0000   0.0000
     0.0000   0.0000   0.0000   0.0000   0.0000   0.0000   0.0000   0.0000
     0.0000   0.0000   0.0000   0.0000   0.0000   0.0000   0.0000   0.0000
     0.0000   0.0000   0.0000   0.0000   0.0000   0.0000   0.0000   0.0000
     0.0000   0.0000   0.0000   0.0000   0.0000   0.0000   0.0000   0.0000
     0.0000   0.0000   0.0000   0.0000   0.0000   0.0000   0.0000   0.0000
     0.0000   0.0000   0.0000   0.0000   0.0000   0.0000   0.0000   0.0000
     0.0000   0.0000   0.0000   0.0000   0.0000   0.0000   0.0000   0.0000
     0.0000   0.0000   0.0000   0.0000   0.0000   0.0000   0.0000   0.0000
     0.0000   0.0000   0.0000   0.0000   0.0000   0.0000   0.0000   0.0000
     0.0000   0.0000   0.0000   0.0000   0.0000   0.0000   0.0000   0.0000
     0.0000   0.0000   0.0000   0.0000   0.0000

          k = 0.0000 0.0000 0.6759 (  9280 PWs)   bands (ev):

   -30.7676 -17.3937 -16.8456 -16.8405 -16.4312 -16.4204 -16.2468 -14.2740
   -14.2259 -12.1186 -12.1166 -11.9295  -1.8100  -1.7995  -1.6304  -1.6295
    -0.9911  -0.9910   0.8716   1.0110   1.0132   1.3075   1.5848   1.5878
     1.9022   1.9036   2.0027   2.2065   2.2326   2.2346   2.3499   2.4274
     2.4335   2.6937   2.8777   2.8826   4.2144   4.2481   4.2556   4.2562
     4.4007   4.4015   4.4507  10.8367  10.8386  11.2322  11.7249  11.7265
    12.5008  12.7089  12.7105  13.1826  13.1843  13.5428  13.5429  14.2613
    14.8606  14.8623  15.5037  17.0708  17.8669  17.9140  18.1076  18.1114
    19.2103  19.4261  19.4282  20.2463  20.2478  20.3962  20.9085  21.3694
    21.3965  21.9005  21.9027  22.0351  22.6633  22.8245  22.9488  22.9498
    23.3557  23.3574  24.1440  24.1520  24.1551  24.2712  24.4379  24.4380
    24.9109  25.0308  25.1611  25.1617  25.9152  26.6875  27.9371  27.9391
    28.1375  28.1409  28.2476  29.7018  29.7019  30.2547  30.2566  31.0552
    31.0607  31.6765  31.6778  31.7231  31.7259  32.0702  32.5449  32.5661
    33.3753  33.3771  33.5254  33.6347  33.6356  33.9662  33.9662  34.2677
    34.2703  35.1009  35.1634  36.1183  36.1225  36.2069  36.5490  36.5588
    36.7026  37.0538  37.3883  37.7937  37.8682  37.8717  38.6735  38.6741
    38.7687  38.7732  39.8320  39.8340  39.9047  40.4427  40.6787  40.8673
    40.8706  41.2808  41.2826  41.3909  42.0082

     occupation numbers 
     1.0000   1.0000   1.0000   1.0000   1.0000   1.0000   1.0000   1.0000
     1.0000   1.0000   1.0000   1.0000   1.0000   1.0000   1.0000   1.0000
     1.0000   1.0000   1.0000   1.0000   1.0000   1.0000   1.0000   1.0000
     1.0000   1.0000   1.0000   1.0000   1.0000   1.0000   1.0000   1.0000
     1.0000   1.0000   1.0000   1.0000   0.3971   0.1365   0.1011   0.0988
     0.0000   0.0000   0.0000   0.0000   0.0000   0.0000   0.0000   0.0000
     0.0000   0.0000   0.0000   0.0000   0.0000   0.0000   0.0000   0.0000
     0.0000   0.0000   0.0000   0.0000   0.0000   0.0000   0.0000   0.0000
     0.0000   0.0000   0.0000   0.0000   0.0000   0.0000   0.0000   0.0000
     0.0000   0.0000   0.0000   0.0000   0.0000   0.0000   0.0000   0.0000
     0.0000   0.0000   0.0000   0.0000   0.0000   0.0000   0.0000   0.0000
     0.0000   0.0000   0.0000   0.0000   0.0000   0.0000   0.0000   0.0000
     0.0000   0.0000   0.0000   0.0000   0.0000   0.0000   0.0000   0.0000
     0.0000   0.0000   0.0000   0.0000   0.0000   0.0000   0.0000   0.0000
     0.0000   0.0000   0.0000   0.0000   0.0000   0.0000   0.0000   0.0000
     0.0000   0.0000   0.0000   0.0000   0.0000   0.0000   0.0000   0.0000
     0.0000   0.0000   0.0000   0.0000   0.0000   0.0000   0.0000   0.0000
     0.0000   0.0000   0.0000   0.0000   0.0000   0.0000   0.0000   0.0000
     0.0000   0.0000   0.0000   0.0000   0.0000

          k = 0.0000 0.0000 0.8110 (  9274 PWs)   bands (ev):

   -30.7612 -17.4553 -16.8026 -16.7965 -16.4559 -16.4440 -16.2417 -14.2657
   -14.2047 -12.1552 -12.1530 -11.8699  -1.9835  -1.9490  -1.6301  -1.6290
    -0.9588  -0.9586   0.9366   1.0887   1.0919   1.3093   1.4996   1.5042
     1.9578   1.9617   2.0013   2.1511   2.1514   2.2804   2.3145   2.4647
     2.4726   2.6203   2.8815   2.8878   4.2109   4.2491   4.2529   4.2534
     4.3774   4.3782   4.4602  10.9277  10.9297  11.3126  11.5427  11.5439
    12.5856  12.5874  12.8584  13.0151  13.0164  13.5446  13.5447  14.7782
    15.0244  15.0259  16.7714  17.6799  17.9504  17.9548  17.9810  18.1178
    19.2371  19.4479  19.4503  20.0062  20.0628  20.0642  20.6631  20.9286
    21.2679  21.3990  21.5884  21.8686  22.2098  22.2136  23.5377  23.5394
    23.8346  23.8349  23.8727  24.2453  24.2612  24.2612  24.8587  24.8603
    24.9714  25.1079  25.1349  25.1364  25.6154  26.1877  27.6387  27.6440
    28.1797  28.1807  28.3863  29.5834  29.5840  30.4478  30.4535  30.8100
    30.8108  31.1872  31.1881  31.5450  31.5452  32.0060  32.8859  33.0013
    33.0915  33.0935  33.5899  33.5940  34.2864  34.2888  34.2904  35.0420
    35.0436  35.1940  35.2592  35.8933  35.8956  36.1970  36.2089  36.2582
    36.4838  37.0355  37.3938  37.3962  37.6593  37.8936  37.8970  38.1282
    38.6050  38.6101  40.0177  40.0194  40.0410  40.0537  40.3911  40.4864
    40.4885  41.4319  41.4338  41.7005  41.7393

     occupation numbers 
     1.0000   1.0000   1.0000   1.0000   1.0000   1.0000   1.0000   1.0000
     1.0000   1.0000   1.0000   1.0000   1.0000   1.0000   1.0000   1.0000
     1.0000   1.0000   1.0000   1.0000   1.0000   1.0000   1.0000   1.0000
     1.0000   1.0000   1.0000   1.0000   1.0000   1.0000   1.0000   1.0000
     1.0000   1.0000   1.0000   1.0000   0.4325   0.1313   0.1131   0.1106
     0.0000   0.0000   0.0000   0.0000   0.0000   0.0000   0.0000   0.0000
     0.0000   0.0000   0.0000   0.0000   0.0000   0.0000   0.0000   0.0000
     0.0000   0.0000   0.0000   0.0000   0.0000   0.0000   0.0000   0.0000
     0.0000   0.0000   0.0000   0.0000   0.0000   0.0000   0.0000   0.0000
     0.0000   0.0000   0.0000   0.0000   0.0000   0.0000   0.0000   0.0000
     0.0000   0.0000   0.0000   0.0000   0.0000   0.0000   0.0000   0.0000
     0.0000   0.0000   0.0000   0.0000   0.0000   0.0000   0.0000   0.0000
     0.0000   0.0000   0.0000   0.0000   0.0000   0.0000   0.0000   0.0000
     0.0000   0.0000   0.0000   0.0000   0.0000   0.0000   0.0000   0.0000
     0.0000   0.0000   0.0000   0.0000   0.0000   0.0000   0.0000   0.0000
     0.0000   0.0000   0.0000   0.0000   0.0000   0.0000   0.0000   0.0000
     0.0000   0.0000   0.0000   0.0000   0.0000   0.0000   0.0000   0.0000
     0.0000   0.0000   0.0000   0.0000   0.0000   0.0000   0.0000   0.0000
     0.0000   0.0000   0.0000   0.0000   0.0000

          k = 0.0000 0.0000-0.9462 (  9330 PWs)   bands (ev):

   -30.7589 -17.4771 -16.7855 -16.7788 -16.4665 -16.4541 -16.2398 -14.2626
   -14.1971 -12.1683 -12.1661 -11.8491  -2.0436  -2.0011  -1.6303  -1.6292
    -0.9463  -0.9461   0.9544   1.1289   1.1332   1.3164   1.4539   1.4598
     1.9870   1.9960   2.0007   2.1086   2.1112   2.2578   2.3711   2.4799
     2.4886   2.5751   2.8814   2.8884   4.2099   4.2495   4.2523   4.2528
     4.3685   4.3693   4.4633  10.9775  10.9796  11.3388  11.4605  11.4616
    12.5420  12.5438  12.9587  12.9599  13.0006  13.5469  13.5471  14.9172
    15.0927  15.0940  17.4254  17.8796  17.8842  17.9436  18.0817  18.6923
    19.2571  19.4603  19.4628  19.7126  19.9953  19.9968  20.0299  20.3361
    20.8637  21.3855  21.4472  21.7586  22.3404  22.3452  23.5676  23.5687
    23.7690  24.1331  24.1333  24.1363  24.1368  24.2360  25.0781  25.2638
    25.2663  25.2778  25.3684  25.3697  25.3901  25.9420  27.1828  27.1893
    28.2364  28.2369  28.4523  29.5455  29.5467  30.2354  30.2426  30.7825
    30.7832  31.3171  31.3180  31.4443  31.4454  31.9346  32.8215  32.8238
    32.8907  33.1839  33.6644  33.6708  34.4886  34.4908  35.0729  35.2055
    35.2097  35.4568  35.4577  35.9044  35.9172  36.0362  36.0366  36.2234
    36.3859  36.9536  37.1262  37.1268  37.4278  37.4627  37.4681  38.5404
    38.5463  39.1483  39.2392  39.7001  40.1224  40.1233  40.3019  40.3039
    40.4453  41.3167  41.6495  41.6515  41.6712

     occupation numbers 
     1.0000   1.0000   1.0000   1.0000   1.0000   1.0000   1.0000   1.0000
     1.0000   1.0000   1.0000   1.0000   1.0000   1.0000   1.0000   1.0000
     1.0000   1.0000   1.0000   1.0000   1.0000   1.0000   1.0000   1.0000
     1.0000   1.0000   1.0000   1.0000   1.0000   1.0000   1.0000   1.0000
     1.0000   1.0000   1.0000   1.0000   0.4432   0.1294   0.1158   0.1133
     0.0001   0.0001   0.0000   0.0000   0.0000   0.0000   0.0000   0.0000
     0.0000   0.0000   0.0000   0.0000   0.0000   0.0000   0.0000   0.0000
     0.0000   0.0000   0.0000   0.0000   0.0000   0.0000   0.0000   0.0000
     0.0000   0.0000   0.0000   0.0000   0.0000   0.0000   0.0000   0.0000
     0.0000   0.0000   0.0000   0.0000   0.0000   0.0000   0.0000   0.0000
     0.0000   0.0000   0.0000   0.0000   0.0000   0.0000   0.0000   0.0000
     0.0000   0.0000   0.0000   0.0000   0.0000   0.0000   0.0000   0.0000
     0.0000   0.0000   0.0000   0.0000   0.0000   0.0000   0.0000   0.0000
     0.0000   0.0000   0.0000   0.0000   0.0000   0.0000   0.0000   0.0000
     0.0000   0.0000   0.0000   0.0000   0.0000   0.0000   0.0000   0.0000
     0.0000   0.0000   0.0000   0.0000   0.0000   0.0000   0.0000   0.0000
     0.0000   0.0000   0.0000   0.0000   0.0000   0.0000   0.0000   0.0000
     0.0000   0.0000   0.0000   0.0000   0.0000   0.0000   0.0000   0.0000
     0.0000   0.0000   0.0000   0.0000   0.0000

          k = 0.1429 0.0825 0.0000 (  9243 PWs)   bands (ev):

   -30.8052 -17.0451 -17.0340 -17.0081 -16.3521 -16.3443 -16.2455 -14.3442
   -14.3238 -12.3163 -11.9058 -11.9041  -1.6621  -1.6390  -1.1588  -1.1252
    -0.7768  -0.5629   0.3950   0.9132   0.9287   1.3341   1.3499   1.6324
     1.7088   1.7498   1.9173   1.9886   2.4608   2.4693   2.5269   2.5566
     2.6868   2.7183   2.8250   2.8840   4.2461   4.2632   4.2949   4.2960
     4.3574   4.4935   4.4956  10.0986  10.7962  10.8401  11.1770  11.5476
    11.7354  12.1830  12.1908  12.9659  12.9935  13.4221  13.6796  14.8209
    14.8504  15.8906  15.9387  16.4052  16.6560  16.7031  17.4437  17.7322
    18.2178  18.3465  19.3648  19.4043  20.2445  20.2868  20.6960  21.3653
    21.3827  21.3839  21.4391  21.8050  22.5326  22.8174  22.8349  22.9558
    23.0868  23.7385  23.8345  24.2938  24.3125  24.3865  24.7905  25.8858
    25.9545  26.1998  26.3177  26.6734  27.1891  27.9675  28.0451  28.0695
    28.1162  28.3133  28.3193  29.0216  29.8983  30.0401  30.0517  30.6819
    31.0933  31.2583  31.5762  31.7090  31.7441  31.8377  32.2467  32.3778
    32.7989  33.5394  33.5732  33.7750  34.5445  34.8710  34.9778  35.1294
    35.2371  35.5132  35.6603  36.3862  36.4649  36.4936  36.8069  36.8537
    37.1313  37.4176  37.7863  38.0088  38.0734  38.2253  38.7562  38.7791
    38.7906  39.4920  39.9772  40.1981  40.5836  40.6551  40.9522  41.0554
    41.1512  41.2119  41.3711  41.6235  42.3467

     occupation numbers 
     1.0000   1.0000   1.0000   1.0000   1.0000   1.0000   1.0000   1.0000
     1.0000   1.0000   1.0000   1.0000   1.0000   1.0000   1.0000   1.0000
     1.0000   1.0000   1.0000   1.0000   1.0000   1.0000   1.0000   1.0000
     1.0000   1.0000   1.0000   1.0000   1.0000   1.0000   1.0000   1.0000
     1.0000   1.0000   1.0000   1.0000   0.1470   0.0730   0.0146   0.0137
     0.0002   0.0000   0.0000   0.0000   0.0000   0.0000   0.0000   0.0000
     0.0000   0.0000   0.0000   0.0000   0.0000   0.0000   0.0000   0.0000
     0.0000   0.0000   0.0000   0.0000   0.0000   0.0000   0.0000   0.0000
     0.0000   0.0000   0.0000   0.0000   0.0000   0.0000   0.0000   0.0000
     0.0000   0.0000   0.0000   0.0000   0.0000   0.0000   0.0000   0.0000
     0.0000   0.0000   0.0000   0.0000   0.0000   0.0000   0.0000   0.0000
     0.0000   0.0000   0.0000   0.0000   0.0000   0.0000   0.0000   0.0000
     0.0000   0.0000   0.0000   0.0000   0.0000   0.0000   0.0000   0.0000
     0.0000   0.0000   0.0000   0.0000   0.0000   0.0000   0.0000   0.0000
     0.0000   0.0000   0.0000   0.0000   0.0000   0.0000   0.0000   0.0000
     0.0000   0.0000   0.0000   0.0000   0.0000   0.0000   0.0000   0.0000
     0.0000   0.0000   0.0000   0.0000   0.0000   0.0000   0.0000   0.0000
     0.0000   0.0000   0.0000   0.0000   0.0000   0.0000   0.0000   0.0000
     0.0000   0.0000   0.0000   0.0000   0.0000

          k = 0.1429 0.0825 0.1352 (  9240 PWs)   bands (ev):

   -30.8029 -17.0480 -17.0248 -17.0180 -16.3553 -16.3474 -16.2472 -14.3373
   -14.3207 -12.2906 -11.9187 -11.9170  -1.6577  -1.6341  -1.1540  -1.1210
    -0.8486  -0.6573   0.4274   0.8987   0.9184   1.3757   1.3894   1.5739
     1.7307   1.8022   1.9132   1.9918   2.4330   2.4426   2.5279   2.5479
     2.6970   2.7290   2.8255   2.8653   4.2460   4.2572   4.2916   4.2923
     4.3671   4.4896   4.4916  10.2300  10.7825  10.8261  11.2376  11.7292
    11.8165  12.1773  12.1840  12.9872  13.0177  13.4258  13.6698  14.6025
    14.6515  15.5694  15.6086  16.5017  16.8830  16.9790  17.5124  17.8201
    18.5450  18.6099  19.4829  19.4929  20.0555  20.4214  20.7075  21.2516
    21.3406  21.3707  21.3855  21.7927  22.4096  22.5170  22.5558  23.1647
    23.3053  23.7743  23.9130  24.1977  24.3740  24.5515  24.8782  25.7033
    25.9024  25.9523  26.5808  26.8805  27.1903  27.7764  27.9827  27.9999
    28.2586  28.3094  28.3675  28.8473  29.4554  29.9131  30.0334  30.7916
    31.1558  31.3062  31.4669  31.5668  31.7167  31.8784  32.0629  32.6435
    33.0965  33.3464  33.6033  33.8576  34.3724  34.6498  34.8284  35.0439
    35.2288  35.3870  35.8997  36.2545  36.3549  36.6626  36.8749  37.1693
    37.2801  37.4751  37.7057  37.9749  38.1219  38.2830  38.6597  38.8262
    38.9111  39.3163  39.8979  40.0570  40.3351  40.6445  40.8101  41.2198
    41.2638  41.4909  41.5193  42.0369  42.1733

     occupation numbers 
     1.0000   1.0000   1.0000   1.0000   1.0000   1.0000   1.0000   1.0000
     1.0000   1.0000   1.0000   1.0000   1.0000   1.0000   1.0000   1.0000
     1.0000   1.0000   1.0000   1.0000   1.0000   1.0000   1.0000   1.0000
     1.0000   1.0000   1.0000   1.0000   1.0000   1.0000   1.0000   1.0000
     1.0000   1.0000   1.0000   1.0000   0.1475   0.0946   0.0176   0.0169
     0.0001   0.0000   0.0000   0.0000   0.0000   0.0000   0.0000   0.0000
     0.0000   0.0000   0.0000   0.0000   0.0000   0.0000   0.0000   0.0000
     0.0000   0.0000   0.0000   0.0000   0.0000   0.0000   0.0000   0.0000
     0.0000   0.0000   0.0000   0.0000   0.0000   0.0000   0.0000   0.0000
     0.0000   0.0000   0.0000   0.0000   0.0000   0.0000   0.0000   0.0000
     0.0000   0.0000   0.0000   0.0000   0.0000   0.0000   0.0000   0.0000
     0.0000   0.0000   0.0000   0.0000   0.0000   0.0000   0.0000   0.0000
     0.0000   0.0000   0.0000   0.0000   0.0000   0.0000   0.0000   0.0000
     0.0000   0.0000   0.0000   0.0000   0.0000   0.0000   0.0000   0.0000
     0.0000   0.0000   0.0000   0.0000   0.0000   0.0000   0.0000   0.0000
     0.0000   0.0000   0.0000   0.0000   0.0000   0.0000   0.0000   0.0000
     0.0000   0.0000   0.0000   0.0000   0.0000   0.0000   0.0000   0.0000
     0.0000   0.0000   0.0000   0.0000   0.0000   0.0000   0.0000   0.0000
     0.0000   0.0000   0.0000   0.0000   0.0000

          k = 0.1429 0.0825 0.2703 (  9247 PWs)   bands (ev):

   -30.7965 -17.1050 -16.9990 -16.9950 -16.3650 -16.3569 -16.2502 -14.3178
   -14.3121 -12.2202 -11.9549 -11.9531  -1.6467  -1.6215  -1.1400  -1.1100
    -1.0389  -0.9018   0.5178   0.8788   0.9066   1.4422   1.4750   1.5188
     1.7724   1.8695   1.9009   2.0072   2.3756   2.4103   2.5007   2.5053
     2.6885   2.7596   2.8248   2.8433   4.2448   4.2458   4.2827   4.2834
     4.3889   4.4774   4.4791  10.5511  10.7565  10.8004  11.4143  12.0929
    12.1446  12.1551  12.2685  13.0154  13.0720  13.4104  13.5755  14.2269
    14.3142  15.0582  15.0864  16.6207  17.1771  17.4332  17.6786  18.0455
    18.9901  19.1577  19.8209  19.8584  19.9506  20.6065  20.7711  21.0010
    21.2013  21.3714  21.3835  21.7032  22.1331  22.1425  22.2478  23.2943
    23.4251  23.7390  24.0316  24.2950  24.4603  24.7872  25.0890  25.3665
    25.5598  25.9630  26.8016  26.8550  27.0890  27.3046  27.9329  28.0419
    28.2032  28.2200  28.2766  28.5844  28.9279  29.8740  29.9697  30.8157
    31.1929  31.3567  31.4681  31.6635  31.8176  31.9914  32.2952  32.3696
    33.2281  33.3820  33.6829  33.7241  34.1732  34.4745  34.4889  34.8023
    34.9723  35.3143  35.7736  35.9101  36.4068  36.7366  36.9115  37.1399
    37.6078  37.6617  37.8600  37.9265  38.3271  38.4972  38.7394  38.9424
    39.0880  39.3316  39.4922  39.8044  40.0061  40.4898  41.0896  41.1944
    41.3586  41.5110  41.6050  41.8388  41.9708

     occupation numbers 
     1.0000   1.0000   1.0000   1.0000   1.0000   1.0000   1.0000   1.0000
     1.0000   1.0000   1.0000   1.0000   1.0000   1.0000   1.0000   1.0000
     1.0000   1.0000   1.0000   1.0000   1.0000   1.0000   1.0000   1.0000
     1.0000   1.0000   1.0000   1.0000   1.0000   1.0000   1.0000   1.0000
     1.0000   1.0000   1.0000   1.0000   0.1546   0.1486   0.0285   0.0275
     0.0000   0.0000   0.0000   0.0000   0.0000   0.0000   0.0000   0.0000
     0.0000   0.0000   0.0000   0.0000   0.0000   0.0000   0.0000   0.0000
     0.0000   0.0000   0.0000   0.0000   0.0000   0.0000   0.0000   0.0000
     0.0000   0.0000   0.0000   0.0000   0.0000   0.0000   0.0000   0.0000
     0.0000   0.0000   0.0000   0.0000   0.0000   0.0000   0.0000   0.0000
     0.0000   0.0000   0.0000   0.0000   0.0000   0.0000   0.0000   0.0000
     0.0000   0.0000   0.0000   0.0000   0.0000   0.0000   0.0000   0.0000
     0.0000   0.0000   0.0000   0.0000   0.0000   0.0000   0.0000   0.0000
     0.0000   0.0000   0.0000   0.0000   0.0000   0.0000   0.0000   0.0000
     0.0000   0.0000   0.0000   0.0000   0.0000   0.0000   0.0000   0.0000
     0.0000   0.0000   0.0000   0.0000   0.0000   0.0000   0.0000   0.0000
     0.0000   0.0000   0.0000   0.0000   0.0000   0.0000   0.0000   0.0000
     0.0000   0.0000   0.0000   0.0000   0.0000   0.0000   0.0000   0.0000
     0.0000   0.0000   0.0000   0.0000   0.0000

          k = 0.1429 0.0825 0.4055 (  9265 PWs)   bands (ev):

   -30.7873 -17.1978 -16.9558 -16.9516 -16.3816 -16.3730 -16.2509 -14.2994
   -14.2892 -12.1227 -12.0073 -12.0053  -1.6348  -1.6066  -1.3049  -1.2296
    -1.1082  -1.0733   0.6470   0.8832   0.9169   1.3793   1.5681   1.5940
     1.7942   1.8553   1.9399   2.0511   2.3276   2.3994   2.4367   2.4412
     2.6206   2.7766   2.8336   2.8597   4.2325   4.2457   4.2715   4.2727
     4.4128   4.4563   4.4575  10.7388  10.7804  10.8976  11.7046  12.0706
    12.0984  12.6344  12.9582  13.0481  13.0981  13.3564  13.3760  13.9681
    14.0509  14.6863  14.7763  16.7687  17.3546  17.6802  17.9384  18.2243
    18.9758  19.4235  19.8946  20.5362  20.5677  20.7157  20.8144  21.1979
    21.2735  21.3759  21.3824  21.5212  21.8411  21.9759  22.2032  23.2203
    23.3934  23.6619  24.1002  24.4347  24.4692  24.8362  25.1077  25.2286
    25.2762  25.6884  25.9850  26.5747  26.8297  27.0724  27.4668  27.7698
    27.9914  28.2137  28.2541  28.9711  29.2750  29.8858  29.9550  30.8539
    31.3423  31.6018  31.6620  31.8938  31.9647  32.2926  32.3333  32.5327
    33.0480  33.1093  33.3571  33.4463  33.9500  34.1899  34.4238  34.6281
    34.8355  35.0521  35.1643  35.6604  36.5494  36.6405  36.8626  37.0522
    37.3316  37.5022  37.8301  38.0722  38.3434  38.6601  39.0856  39.1203
    39.1874  39.4526  39.5097  39.8804  40.0465  40.3161  40.5788  40.6378
    41.2286  41.3209  41.4229  41.5980  42.1440

     occupation numbers 
     1.0000   1.0000   1.0000   1.0000   1.0000   1.0000   1.0000   1.0000
     1.0000   1.0000   1.0000   1.0000   1.0000   1.0000   1.0000   1.0000
     1.0000   1.0000   1.0000   1.0000   1.0000   1.0000   1.0000   1.0000
     1.0000   1.0000   1.0000   1.0000   1.0000   1.0000   1.0000   1.0000
     1.0000   1.0000   1.0000   1.0000   0.2362   0.1496   0.0499   0.0471
     0.0000   0.0000   0.0000   0.0000   0.0000   0.0000   0.0000   0.0000
     0.0000   0.0000   0.0000   0.0000   0.0000   0.0000   0.0000   0.0000
     0.0000   0.0000   0.0000   0.0000   0.0000   0.0000   0.0000   0.0000
     0.0000   0.0000   0.0000   0.0000   0.0000   0.0000   0.0000   0.0000
     0.0000   0.0000   0.0000   0.0000   0.0000   0.0000   0.0000   0.0000
     0.0000   0.0000   0.0000   0.0000   0.0000   0.0000   0.0000   0.0000
     0.0000   0.0000   0.0000   0.0000   0.0000   0.0000   0.0000   0.0000
     0.0000   0.0000   0.0000   0.0000   0.0000   0.0000   0.0000   0.0000
     0.0000   0.0000   0.0000   0.0000   0.0000   0.0000   0.0000   0.0000
     0.0000   0.0000   0.0000   0.0000   0.0000   0.0000   0.0000   0.0000
     0.0000   0.0000   0.0000   0.0000   0.0000   0.0000   0.0000   0.0000
     0.0000   0.0000   0.0000   0.0000   0.0000   0.0000   0.0000   0.0000
     0.0000   0.0000   0.0000   0.0000   0.0000   0.0000   0.0000   0.0000
     0.0000   0.0000   0.0000   0.0000   0.0000

          k = 0.1429 0.0825 0.5407 (  9266 PWs)   bands (ev):

   -30.7770 -17.3004 -16.9023 -16.8982 -16.4046 -16.3952 -16.2482 -14.2847
   -14.2570 -12.0656 -12.0636 -12.0195  -1.6362  -1.5992  -1.5619  -1.5407
    -1.0701  -1.0400   0.7831   0.9228   0.9557   1.3228   1.5889   1.6192
     1.8249   1.8383   1.9831   2.1228   2.2754   2.3522   2.3948   2.4263
     2.5355   2.7456   2.8648   2.8830   4.2230   4.2456   4.2618   4.2632
     4.4282   4.4290   4.4338  10.7726  10.8141  11.0966  11.8711  11.9240
    12.2029  12.7691  12.8338  13.2554  13.2967  13.4752  13.7383  13.7519
    14.2293  14.6282  14.8096  16.9424  17.4666  17.7698  18.0796  18.2669
    18.9052  19.4500  19.7708  20.4579  20.5015  21.0634  21.2809  21.3048
    21.3878  21.4326  21.4820  21.8439  22.0286  22.3837  22.6319  23.0540
    23.3880  23.5491  24.0833  24.1309  24.1814  24.5200  24.7552  24.9100
    25.2468  25.2958  25.4987  25.6153  26.1179  27.0553  27.6305  27.8127
    28.0613  28.3185  28.3745  29.4164  29.5473  29.8810  29.9479  31.3192
    31.4330  31.6453  31.8707  31.9432  32.0837  32.1549  32.2208  32.6538
    32.7271  33.0162  33.3691  33.5053  33.6768  33.9806  34.1468  34.3714
    34.4751  34.8770  35.0938  35.8051  36.3678  36.6138  36.7550  36.9213
    37.0427  37.2856  37.7469  37.9318  38.2855  38.4140  38.8616  38.9158
    39.2380  39.4831  39.6041  39.8935  40.0300  40.1320  40.5258  40.6277
    41.2354  41.2563  41.3251  41.4636  42.3110

     occupation numbers 
     1.0000   1.0000   1.0000   1.0000   1.0000   1.0000   1.0000   1.0000
     1.0000   1.0000   1.0000   1.0000   1.0000   1.0000   1.0000   1.0000
     1.0000   1.0000   1.0000   1.0000   1.0000   1.0000   1.0000   1.0000
     1.0000   1.0000   1.0000   1.0000   1.0000   1.0000   1.0000   1.0000
     1.0000   1.0000   1.0000   1.0000   0.3150   0.1501   0.0778   0.0730
     0.0000   0.0000   0.0000   0.0000   0.0000   0.0000   0.0000   0.0000
     0.0000   0.0000   0.0000   0.0000   0.0000   0.0000   0.0000   0.0000
     0.0000   0.0000   0.0000   0.0000   0.0000   0.0000   0.0000   0.0000
     0.0000   0.0000   0.0000   0.0000   0.0000   0.0000   0.0000   0.0000
     0.0000   0.0000   0.0000   0.0000   0.0000   0.0000   0.0000   0.0000
     0.0000   0.0000   0.0000   0.0000   0.0000   0.0000   0.0000   0.0000
     0.0000   0.0000   0.0000   0.0000   0.0000   0.0000   0.0000   0.0000
     0.0000   0.0000   0.0000   0.0000   0.0000   0.0000   0.0000   0.0000
     0.0000   0.0000   0.0000   0.0000   0.0000   0.0000   0.0000   0.0000
     0.0000   0.0000   0.0000   0.0000   0.0000   0.0000   0.0000   0.0000
     0.0000   0.0000   0.0000   0.0000   0.0000   0.0000   0.0000   0.0000
     0.0000   0.0000   0.0000   0.0000   0.0000   0.0000   0.0000   0.0000
     0.0000   0.0000   0.0000   0.0000   0.0000   0.0000   0.0000   0.0000
     0.0000   0.0000   0.0000   0.0000   0.0000

          k = 0.1429 0.0825 0.6759 (  9281 PWs)   bands (ev):

   -30.7676 -17.3913 -16.8476 -16.8432 -16.4319 -16.4213 -16.2435 -14.2711
   -14.2276 -12.1184 -12.1162 -11.9308  -1.8114  -1.8067  -1.6136  -1.5859
    -1.0278  -0.9992   0.8847   0.9938   1.0190   1.3105   1.5142   1.5447
     1.8767   1.8964   2.0060   2.1715   2.2325   2.2649   2.3990   2.4582
     2.4757   2.6908   2.8904   2.8957   4.2169   4.2455   4.2556   4.2569
     4.3987   4.4000   4.4488  10.8476  10.8859  11.2040  11.7065  11.7270
[...]
     1.7469   1.7742   1.8343   2.0221   2.2934   2.4293   2.5167   2.5556
     2.6868   2.7714   2.8250   2.8386   4.2451   4.2527   4.2865   4.2879
     4.3843   4.4555   4.4697  10.7272  11.0320  11.1137  11.5584  11.8978
    12.1135  12.1755  12.4009  12.5218  12.8156  13.1040  13.5053  14.5580
    14.7882  14.9296  15.2321  15.9205  16.2504  17.4144  18.5449  18.6109
    19.1449  19.2383  19.6665  19.9284  19.9684  20.2676  20.5109  20.6305
    21.3613  21.3826  21.4522  21.8141  22.0772  22.4505  22.6396  22.7628
    23.2033  23.4870  23.8654  24.1441  24.6724  24.8178  24.8404  25.8781
    26.0938  26.1750  26.3718  26.7843  27.1951  27.2703  27.5749  27.8641
    28.1555  28.3216  28.6212  29.1969  29.5180  29.9016  30.0200  30.6161
    30.9867  31.0801  31.4864  32.0075  32.1109  32.2325  32.3450  32.5369
    32.8451  33.1463  33.2656  33.7497  34.0696  34.1648  34.2620  34.8719
    34.9242  35.0749  35.4403  35.8799  36.0357  36.6146  36.8011  37.0723
    37.4803  37.6151  37.7993  38.0712  38.2282  38.6097  38.8587  39.1812
    39.5704  39.6096  40.0065  40.1539  40.3070  40.4870  40.7979  41.1980
    41.2700  41.7007  41.7976  41.9970  42.3138

     occupation numbers 
     1.0000   1.0000   1.0000   1.0000   1.0000   1.0000   1.0000   1.0000
     1.0000   1.0000   1.0000   1.0000   1.0000   1.0000   1.0000   1.0000
     1.0000   1.0000   1.0000   1.0000   1.0000   1.0000   1.0000   1.0000
     1.0000   1.0000   1.0000   1.0000   1.0000   1.0000   1.0000   1.0000
     1.0000   1.0000   1.0000   1.0000   0.1527   0.1138   0.0234   0.0216
     0.0000   0.0000   0.0000   0.0000   0.0000   0.0000   0.0000   0.0000
     0.0000   0.0000   0.0000   0.0000   0.0000   0.0000   0.0000   0.0000
     0.0000   0.0000   0.0000   0.0000   0.0000   0.0000   0.0000   0.0000
     0.0000   0.0000   0.0000   0.0000   0.0000   0.0000   0.0000   0.0000
     0.0000   0.0000   0.0000   0.0000   0.0000   0.0000   0.0000   0.0000
     0.0000   0.0000   0.0000   0.0000   0.0000   0.0000   0.0000   0.0000
     0.0000   0.0000   0.0000   0.0000   0.0000   0.0000   0.0000   0.0000
     0.0000   0.0000   0.0000   0.0000   0.0000   0.0000   0.0000   0.0000
     0.0000   0.0000   0.0000   0.0000   0.0000   0.0000   0.0000   0.0000
     0.0000   0.0000   0.0000   0.0000   0.0000   0.0000   0.0000   0.0000
     0.0000   0.0000   0.0000   0.0000   0.0000   0.0000   0.0000   0.0000
     0.0000   0.0000   0.0000   0.0000   0.0000   0.0000   0.0000   0.0000
     0.0000   0.0000   0.0000   0.0000   0.0000   0.0000   0.0000   0.0000
     0.0000   0.0000   0.0000   0.0000   0.0000

          k =-0.0000-0.4948 0.4055 (  9279 PWs)   bands (ev):

   -30.7873 -17.1828 -16.9807 -16.9528 -16.3904 -16.3728 -16.2279 -14.3022
   -14.2900 -12.1253 -12.0067 -12.0023  -1.5932  -1.4497  -1.3437  -1.2512
    -1.2328  -1.0928   0.7390   0.8149   0.9580   1.3498   1.4844   1.6031
     1.7682   1.7880   1.8764   1.9981   2.2898   2.4786   2.4878   2.5065
     2.6860   2.7655   2.8253   2.8942   4.2366   4.2471   4.2729   4.2775
     4.4076   4.4380   4.4482  10.7246  11.0369  11.1662  11.9002  12.0134
    12.2401  12.4094  12.7416  12.8779  12.9175  13.0770  13.2067  14.2185
    14.4065  14.6679  15.2987  15.9944  16.7402  17.5376  18.3265  18.8864
    19.1293  19.5380  19.6916  20.0019  20.4754  20.7011  20.7502  20.8608
    21.3777  21.3834  21.4440  21.8872  21.9882  22.1996  22.5488  22.7903
    23.0207  23.4716  23.8434  24.3275  24.6295  24.7872  25.0525  25.6845
    25.7447  25.8978  26.2065  26.4745  26.6769  26.8848  27.2628  27.7542
    28.1535  28.4788  28.6184  28.7803  29.4909  30.0453  30.3455  30.4646
    31.1280  31.2950  31.6332  31.8988  32.0870  32.1323  32.2441  32.5364
    32.7853  32.8105  33.0431  33.6908  33.8881  34.0270  34.4200  34.5693
    34.8506  35.2022  35.4580  35.9324  36.4370  36.7770  36.9667  37.2146
    37.3412  37.5369  37.8315  37.8996  38.6468  38.8522  39.1232  39.1677
    39.2239  39.6090  39.8596  39.9169  40.3510  40.4008  40.5899  40.9330
    40.9937  41.3831  41.6366  41.9619  42.0207

     occupation numbers 
     1.0000   1.0000   1.0000   1.0000   1.0000   1.0000   1.0000   1.0000
     1.0000   1.0000   1.0000   1.0000   1.0000   1.0000   1.0000   1.0000
     1.0000   1.0000   1.0000   1.0000   1.0000   1.0000   1.0000   1.0000
     1.0000   1.0000   1.0000   1.0000   1.0000   1.0000   1.0000   1.0000
     1.0000   1.0000   1.0000   1.0000   0.2065   0.1418   0.0468   0.0371
     0.0000   0.0000   0.0000   0.0000   0.0000   0.0000   0.0000   0.0000
     0.0000   0.0000   0.0000   0.0000   0.0000   0.0000   0.0000   0.0000
     0.0000   0.0000   0.0000   0.0000   0.0000   0.0000   0.0000   0.0000
     0.0000   0.0000   0.0000   0.0000   0.0000   0.0000   0.0000   0.0000
     0.0000   0.0000   0.0000   0.0000   0.0000   0.0000   0.0000   0.0000
     0.0000   0.0000   0.0000   0.0000   0.0000   0.0000   0.0000   0.0000
     0.0000   0.0000   0.0000   0.0000   0.0000   0.0000   0.0000   0.0000
     0.0000   0.0000   0.0000   0.0000   0.0000   0.0000   0.0000   0.0000
     0.0000   0.0000   0.0000   0.0000   0.0000   0.0000   0.0000   0.0000
     0.0000   0.0000   0.0000   0.0000   0.0000   0.0000   0.0000   0.0000
     0.0000   0.0000   0.0000   0.0000   0.0000   0.0000   0.0000   0.0000
     0.0000   0.0000   0.0000   0.0000   0.0000   0.0000   0.0000   0.0000
     0.0000   0.0000   0.0000   0.0000   0.0000   0.0000   0.0000   0.0000
     0.0000   0.0000   0.0000   0.0000   0.0000

          k =-0.0000-0.4948 0.5407 (  9300 PWs)   bands (ev):

   -30.7770 -17.2884 -16.9238 -16.8993 -16.4110 -16.3960 -16.2300 -14.2779
   -14.2632 -12.0643 -12.0617 -12.0235  -1.6205  -1.5941  -1.5133  -1.4084
    -1.1986  -1.0759   0.7389   0.9124   0.9842   1.2856   1.4492   1.5271
     1.8116   1.8353   1.9073   2.0577   2.2968   2.4190   2.4430   2.5606
     2.6748   2.7092   2.8648   2.9404   4.2316   4.2409   4.2602   4.2679
     4.4142   4.4202   4.4287  10.7452  11.0745  11.1716  11.8831  11.9404
    12.2590  12.5421  12.6605  13.0730  13.1975  13.3514  13.9822  14.0307
    14.1629  14.7502  15.4110  16.0742  17.1704  17.6434  17.9784  18.7590
    18.9399  19.4312  19.5973  20.3235  20.7518  20.8165  21.2521  21.3725
    21.3797  21.4619  21.7083  21.8668  22.2244  22.3914  22.6335  22.6497
    23.0494  23.5121  23.7833  23.9977  24.3964  24.7076  24.8131  24.9894
    25.3177  25.7054  25.7913  25.8751  26.1339  27.1097  27.3929  27.8558
    28.1429  28.3032  28.7914  29.0504  29.4606  30.0631  30.3518  31.0305
    31.1323  31.1999  31.6395  31.7430  31.9263  32.0763  32.1900  32.4173
    32.5624  32.6002  32.9839  33.3571  33.8928  34.0643  34.3194  34.7156
    35.0233  35.2887  35.4973  36.2632  36.5918  36.7511  36.8290  37.0082
    37.3304  37.3935  37.7653  38.2691  38.5323  38.8976  38.9698  39.0664
    39.2124  39.3393  39.5302  39.8865  40.2786  40.4273  40.5496  40.7699
    40.9809  41.0303  41.3529  41.6877  41.7970

     occupation numbers 
     1.0000   1.0000   1.0000   1.0000   1.0000   1.0000   1.0000   1.0000
     1.0000   1.0000   1.0000   1.0000   1.0000   1.0000   1.0000   1.0000
     1.0000   1.0000   1.0000   1.0000   1.0000   1.0000   1.0000   1.0000
     1.0000   1.0000   1.0000   1.0000   1.0000   1.0000   1.0000   1.0000
     1.0000   1.0000   1.0000   1.0000   0.2431   0.1776   0.0834   0.0592
     0.0000   0.0000   0.0000   0.0000   0.0000   0.0000   0.0000   0.0000
     0.0000   0.0000   0.0000   0.0000   0.0000   0.0000   0.0000   0.0000
     0.0000   0.0000   0.0000   0.0000   0.0000   0.0000   0.0000   0.0000
     0.0000   0.0000   0.0000   0.0000   0.0000   0.0000   0.0000   0.0000
     0.0000   0.0000   0.0000   0.0000   0.0000   0.0000   0.0000   0.0000
     0.0000   0.0000   0.0000   0.0000   0.0000   0.0000   0.0000   0.0000
     0.0000   0.0000   0.0000   0.0000   0.0000   0.0000   0.0000   0.0000
     0.0000   0.0000   0.0000   0.0000   0.0000   0.0000   0.0000   0.0000
     0.0000   0.0000   0.0000   0.0000   0.0000   0.0000   0.0000   0.0000
     0.0000   0.0000   0.0000   0.0000   0.0000   0.0000   0.0000   0.0000
     0.0000   0.0000   0.0000   0.0000   0.0000   0.0000   0.0000   0.0000
     0.0000   0.0000   0.0000   0.0000   0.0000   0.0000   0.0000   0.0000
     0.0000   0.0000   0.0000   0.0000   0.0000   0.0000   0.0000   0.0000
     0.0000   0.0000   0.0000   0.0000   0.0000

          k =-0.0000-0.4948 0.6759 (  9296 PWs)   bands (ev):

   -30.7676 -17.3813 -16.8650 -16.8444 -16.4359 -16.4241 -16.2303 -14.2554
   -14.2384 -12.1165 -12.1155 -11.9358  -1.8291  -1.8166  -1.5481  -1.3897
    -1.1553  -1.0351   0.7740   0.9343   1.0303   1.3128   1.3692   1.4131
     1.8498   1.8884   1.9444   2.1472   2.2563   2.3359   2.4490   2.6065
     2.6375   2.6743   2.9163   2.9554   4.2297   4.2355   4.2513   4.2610
     4.3912   4.3922   4.4413  10.7727  11.1545  11.1838  11.7125  11.8470
    12.0302  12.5947  12.7010  13.2026  13.2869  13.4590  13.6741  14.7861
    14.8844  15.3664  15.5274  16.1832  17.3885  17.7659  17.8196  18.4937
    18.7850  19.3486  19.5667  20.4396  20.6618  20.7874  21.2202  21.3667
    21.3805  21.5138  21.8234  22.0697  22.1293  22.5477  22.6690  23.1694
    23.2798  23.3872  23.6446  23.7888  23.9578  24.0879  24.5199  24.9844
    25.2768  25.6507  25.8241  25.8860  25.9847  27.0516  27.3779  27.8010
    28.1374  28.5051  28.7678  29.1821  29.4177  29.8024  30.4059  30.5786
    30.8132  31.0464  31.2088  31.5430  31.6221  32.1566  32.2450  32.4130
    32.7831  32.9355  33.2921  33.5435  33.9546  34.1996  34.4335  34.9430
    35.1465  35.5204  35.7729  35.8427  36.0731  36.6258  36.8214  36.8956
    37.4466  37.8164  38.0738  38.1603  38.3001  38.6282  38.8532  38.9510
    39.0030  39.2140  39.6221  39.6724  39.9295  40.1563  40.2858  40.4018
    40.7026  41.0471  41.2535  41.4985  41.5951

     occupation numbers 
     1.0000   1.0000   1.0000   1.0000   1.0000   1.0000   1.0000   1.0000
     1.0000   1.0000   1.0000   1.0000   1.0000   1.0000   1.0000   1.0000
     1.0000   1.0000   1.0000   1.0000   1.0000   1.0000   1.0000   1.0000
     1.0000   1.0000   1.0000   1.0000   1.0000   1.0000   1.0000   1.0000
     1.0000   1.0000   1.0000   1.0000   0.2577   0.2138   0.1202   0.0806
     0.0000   0.0000   0.0000   0.0000   0.0000   0.0000   0.0000   0.0000
     0.0000   0.0000   0.0000   0.0000   0.0000   0.0000   0.0000   0.0000
     0.0000   0.0000   0.0000   0.0000   0.0000   0.0000   0.0000   0.0000
     0.0000   0.0000   0.0000   0.0000   0.0000   0.0000   0.0000   0.0000
     0.0000   0.0000   0.0000   0.0000   0.0000   0.0000   0.0000   0.0000
     0.0000   0.0000   0.0000   0.0000   0.0000   0.0000   0.0000   0.0000
     0.0000   0.0000   0.0000   0.0000   0.0000   0.0000   0.0000   0.0000
     0.0000   0.0000   0.0000   0.0000   0.0000   0.0000   0.0000   0.0000
     0.0000   0.0000   0.0000   0.0000   0.0000   0.0000   0.0000   0.0000
     0.0000   0.0000   0.0000   0.0000   0.0000   0.0000   0.0000   0.0000
     0.0000   0.0000   0.0000   0.0000   0.0000   0.0000   0.0000   0.0000
     0.0000   0.0000   0.0000   0.0000   0.0000   0.0000   0.0000   0.0000
     0.0000   0.0000   0.0000   0.0000   0.0000   0.0000   0.0000   0.0000
     0.0000   0.0000   0.0000   0.0000   0.0000

          k =-0.0000-0.4948 0.8110 (  9296 PWs)   bands (ev):

   -30.7612 -17.4443 -16.8175 -16.8004 -16.4590 -16.4503 -16.2298 -14.2395
   -14.2209 -12.1530 -12.1527 -11.8771  -1.9825  -1.9764  -1.5475  -1.3735
    -1.1281  -0.9981   0.8364   0.9044   1.1009   1.2265   1.2966   1.4429
     1.8622   1.9152   2.0292   2.1704   2.2194   2.2514   2.4952   2.5784
     2.6114   2.6931   2.9491   2.9572   4.2296   4.2317   4.2472   4.2575
     4.3687   4.3749   4.4486  10.7661  11.2346  11.3110  11.5347  11.7061
    11.8517  12.5523  12.8256  13.2688  13.3383  13.4430  13.5060  15.1725
    15.4184  15.5979  16.2245  16.6174  17.3571  17.8454  18.1911  18.4761
    18.7775  19.0412  19.7406  20.3318  20.5973  20.6335  20.8441  21.0312
    21.2301  21.3267  21.4430  21.5363  21.8950  22.0687  22.7099  22.9707
    23.4040  23.5253  24.0845  24.2563  24.4876  24.6103  24.7453  24.9724
    25.2991  25.5306  25.9023  26.0022  26.1436  26.6828  27.3898  27.8719
    28.1250  28.3315  28.5818  28.9226  29.2462  29.6040  29.8064  30.0277
    30.5777  30.7322  30.8896  31.3264  31.7633  32.3598  32.4998  32.6345
    32.9734  33.3126  33.6396  34.0692  34.2757  34.3963  34.6683  35.0112
    35.1241  35.4652  35.5558  35.8973  36.0334  36.4640  36.8947  37.0683
    37.3650  37.4652  37.8342  38.0161  38.1911  38.4744  38.6208  38.7518
    38.9374  39.0918  39.3021  39.5260  39.8863  40.0692  40.2345  40.4194
    40.6120  41.0027  41.2247  41.3936  41.4238

     occupation numbers 
     1.0000   1.0000   1.0000   1.0000   1.0000   1.0000   1.0000   1.0000
     1.0000   1.0000   1.0000   1.0000   1.0000   1.0000   1.0000   1.0000
     1.0000   1.0000   1.0000   1.0000   1.0000   1.0000   1.0000   1.0000
     1.0000   1.0000   1.0000   1.0000   1.0000   1.0000   1.0000   1.0000
     1.0000   1.0000   1.0000   1.0000   0.2587   0.2423   0.1411   0.0935
     0.0001   0.0000   0.0000   0.0000   0.0000   0.0000   0.0000   0.0000
     0.0000   0.0000   0.0000   0.0000   0.0000   0.0000   0.0000   0.0000
     0.0000   0.0000   0.0000   0.0000   0.0000   0.0000   0.0000   0.0000
     0.0000   0.0000   0.0000   0.0000   0.0000   0.0000   0.0000   0.0000
     0.0000   0.0000   0.0000   0.0000   0.0000   0.0000   0.0000   0.0000
     0.0000   0.0000   0.0000   0.0000   0.0000   0.0000   0.0000   0.0000
     0.0000   0.0000   0.0000   0.0000   0.0000   0.0000   0.0000   0.0000
     0.0000   0.0000   0.0000   0.0000   0.0000   0.0000   0.0000   0.0000
     0.0000   0.0000   0.0000   0.0000   0.0000   0.0000   0.0000   0.0000
     0.0000   0.0000   0.0000   0.0000   0.0000   0.0000   0.0000   0.0000
     0.0000   0.0000   0.0000   0.0000   0.0000   0.0000   0.0000   0.0000
     0.0000   0.0000   0.0000   0.0000   0.0000   0.0000   0.0000   0.0000
     0.0000   0.0000   0.0000   0.0000   0.0000   0.0000   0.0000   0.0000
     0.0000   0.0000   0.0000   0.0000   0.0000

          k =-0.0000-0.4948-0.9462 (  9300 PWs)   bands (ev):

   -30.7589 -17.4666 -16.7984 -16.7828 -16.4691 -16.4618 -16.2296 -14.2338
   -14.2146 -12.1664 -12.1657 -11.8565  -2.0374  -2.0313  -1.5469  -1.3678
    -1.1189  -0.9834   0.8644   0.9038   1.1648   1.1876   1.1938   1.4932
     1.8532   1.9376   2.1005   2.1461   2.1556   2.2539   2.5262   2.5512
     2.6014   2.7064   2.9438   2.9714   4.2298   4.2302   4.2463   4.2566
     4.3601   4.3683   4.4508  10.7533  11.3384  11.3848  11.4415  11.6093
    11.7710  12.5181  12.8986  13.2577  13.3737  13.3970  13.5025  15.2905
    15.6065  15.6132  16.3122  17.1209  17.3868  17.8977  18.5124  18.6661
    19.0004  19.1174  19.5687  19.9094  20.2442  20.2810  20.6161  20.8743
    20.9029  21.3211  21.3958  21.5128  21.8131  21.9569  22.7348  22.9844
    23.4077  23.5509  24.3510  24.3652  24.8200  24.8652  25.1081  25.1537
    25.2913  25.4511  25.8849  26.1155  26.2868  26.4279  27.3719  27.8516
    28.1440  28.2350  28.3467  28.6267  29.2895  29.3441  29.6485  29.7433
    30.4245  30.5728  30.7338  31.4471  32.0880  32.2959  32.6395  32.7699
    32.9671  33.4114  33.7046  34.2056  34.4259  34.6665  34.8902  34.9122
    35.3108  35.5017  35.6217  35.7389  36.1096  36.6592  36.7032  36.8592
    37.1053  37.3737  37.7392  37.7628  37.9492  38.4179  38.5954  38.7154
    38.9481  39.1352  39.2484  39.5267  39.9166  40.0778  40.0802  40.5542
    40.8069  40.8160  41.1890  41.4338  41.5606

     occupation numbers 
     1.0000   1.0000   1.0000   1.0000   1.0000   1.0000   1.0000   1.0000
     1.0000   1.0000   1.0000   1.0000   1.0000   1.0000   1.0000   1.0000
     1.0000   1.0000   1.0000   1.0000   1.0000   1.0000   1.0000   1.0000
     1.0000   1.0000   1.0000   1.0000   1.0000   1.0000   1.0000   1.0000
     1.0000   1.0000   1.0000   1.0000   0.2571   0.2538   0.1461   0.0971
     0.0001   0.0001   0.0000   0.0000   0.0000   0.0000   0.0000   0.0000
     0.0000   0.0000   0.0000   0.0000   0.0000   0.0000   0.0000   0.0000
     0.0000   0.0000   0.0000   0.0000   0.0000   0.0000   0.0000   0.0000
     0.0000   0.0000   0.0000   0.0000   0.0000   0.0000   0.0000   0.0000
     0.0000   0.0000   0.0000   0.0000   0.0000   0.0000   0.0000   0.0000
     0.0000   0.0000   0.0000   0.0000   0.0000   0.0000   0.0000   0.0000
     0.0000   0.0000   0.0000   0.0000   0.0000   0.0000   0.0000   0.0000
     0.0000   0.0000   0.0000   0.0000   0.0000   0.0000   0.0000   0.0000
     0.0000   0.0000   0.0000   0.0000   0.0000   0.0000   0.0000   0.0000
     0.0000   0.0000   0.0000   0.0000   0.0000   0.0000   0.0000   0.0000
     0.0000   0.0000   0.0000   0.0000   0.0000   0.0000   0.0000   0.0000
     0.0000   0.0000   0.0000   0.0000   0.0000   0.0000   0.0000   0.0000
     0.0000   0.0000   0.0000   0.0000   0.0000   0.0000   0.0000   0.0000
     0.0000   0.0000   0.0000   0.0000   0.0000

     the Fermi energy is     4.2140 ev
     (compare with:     4.2147 eV, computed in scf)

     Writing all to output data dir ./pwscf.save/ :
     XML data file, pseudopotentials, collected wavefunctions

     init_run     :      4.98s CPU      4.63s WALL (       1 calls)
     electrons    :   5348.59s CPU   2711.71s WALL (       1 calls)

     Called by init_run:
     wfcinit      :      0.00s CPU      0.01s WALL (       1 calls)
     wfcinit:atom :      0.33s CPU      0.21s WALL (     128 calls)
     wfcinit:wfcr :     88.58s CPU     45.16s WALL (     128 calls)
     potinit      :      2.20s CPU      2.01s WALL (       1 calls)
     hinit0       :      0.73s CPU      0.66s WALL (       1 calls)

     Called by electrons:
     c_bands      :   5348.50s CPU   2711.63s WALL (       1 calls)
     v_of_rho     :      0.41s CPU      0.23s WALL (       1 calls)
     v_h          :      0.04s CPU      0.02s WALL (       1 calls)
     v_xc         :      0.36s CPU      0.21s WALL (       1 calls)
     newd         :      1.91s CPU      1.80s WALL (       1 calls)
     PAW_pot      :      1.35s CPU      1.34s WALL (       1 calls)

     Called by c_bands:
     init_us_2    :      0.58s CPU      0.34s WALL (     128 calls)
     cegterg      :   5248.25s CPU   2655.27s WALL (     438 calls)

     Called by sum_band:

     Called by *egterg:
     cdiaghg      :    484.04s CPU    244.07s WALL (    7868 calls)
     cegterg:over :    436.58s CPU    221.85s WALL (    7740 calls)
     cegterg:upda :    253.08s CPU    126.18s WALL (    7740 calls)
     cegterg:last :    385.18s CPU    193.15s WALL (    3941 calls)
     h_psi        :   3295.76s CPU   1679.37s WALL (    8306 calls)
     s_psi        :    111.30s CPU     59.62s WALL (    8306 calls)
     g_psi        :      8.59s CPU      5.39s WALL (    7740 calls)

     Called by h_psi:
     h_psi:calbec :    261.86s CPU    130.71s WALL (    8306 calls)
     vloc_psi     :   2900.29s CPU   1480.57s WALL (    8306 calls)
                                        0.00s GPU  (    8306 calls)
     add_vuspsi   :     77.48s CPU     39.68s WALL (    8306 calls)

     General routines
     calbec       :    261.17s CPU    130.67s WALL (    8306 calls)
     fft          :      0.64s CPU      0.50s WALL (      13 calls)
     ffts         :      0.36s CPU      0.33s WALL (       1 calls)
     fftw         :   2721.17s CPU   1387.84s WALL ( 1184306 calls)
     interpolate  :      0.40s CPU      0.35s WALL (       1 calls)
     davcio       :      9.15s CPU     13.37s WALL (     256 calls)

     Parallel routines

     PAW routines
     PAW_pot      :      1.35s CPU      1.34s WALL (       1 calls)

     PWSCF        :      1h29m CPU  45m55.06s WALL


   This run was terminated on:  17: 3:46  16Apr2026            

=------------------------------------------------------------------------------=
   JOB DONE.
=------------------------------------------------------------------------------=
