
     Program PWSCF v.7.5 starts on 16Apr2026 at 15:13:43 

     This program is part of the open-source Quantum ESPRESSO suite
     for quantum simulation of materials; please cite
         "P. Giannozzi et al., J. Phys.:Condens. Matter 21 395502 (2009);
         "P. Giannozzi et al., J. Phys.:Condens. Matter 29 465901 (2017);
         "P. Giannozzi et al., J. Chem. Phys. 152 154105 (2020);
          URL http://www.quantum-espresso.org", 
     in publications or presentations arising from this work. More details at
     http://www.quantum-espresso.org/quote

     Parallel version (MPI & OpenMP), running on      16 processor cores
     Number of MPI processes:                 8
     Threads/MPI process:                     2

     MPI processes distributed on     1 nodes
     6635 MiB available memory on the printing compute node when the environment starts

     Reading input from scf.in
Warning: card &CELL ignored

     Current dimensions of program PWSCF are:
     Max number of different atomic species (ntypx) = 10
     Max number of k-points (npk) =  40000
     Max angular momentum in pseudopotentials (lmaxx) =  4
     file Pr.paw.z_13.atompaw.wentzcovitch.v1.2.upf: wavefunction(s)  6S 0P 5D 0D 0F renormalized
     Message from routine setup:
     using ibrav=0 with symmetry is DISCOURAGED, use correct ibrav instead

     R & G space division:  proc/nbgrp/npool/nimage =       8
     Subspace diagonalization in iterative solution of the eigenvalue problem:
     a serial algorithm will be used


     Parallelization info
     --------------------
     sticks:   dense  smooth     PW     G-vecs:    dense   smooth      PW
     Min         777     387    114                26227     9281    1468
     Max         778     388    115                26230     9284    1471
     Sum        6217    3103    913               209819    74261   11755

     Using Slab Decomposition



     bravais-lattice index     =            0
     lattice parameter (alat)  =      13.7209  a.u.
     unit-cell volume          =    1182.0254 (a.u.)^3
     number of atoms/cell      =            9
     number of atomic types    =            3
     number of electrons       =        73.00
     number of Kohn-Sham states=          149
     kinetic-energy cutoff     =      60.0000  Ry
     charge density cutoff     =     480.0000  Ry
     scf convergence threshold =      1.0E-08
     mixing beta               =       0.4000
     number of iterations used =            8  plain     mixing
     Exchange-correlation= SLA PW PBX PBC
                           (   1   4   3   4   0   0   0)

     celldm(1)=  13.720941  celldm(2)=   0.000000  celldm(3)=   0.000000
     celldm(4)=   0.000000  celldm(5)=   0.000000  celldm(6)=   0.000000

     crystal axes: (cart. coord. in units of alat)
               a(1) = (   0.499929  -0.866066  -0.000000 )  
               a(2) = (   0.499929   0.866066   0.000000 )  
               a(3) = (   0.000000   0.000000   0.528427 )  

     reciprocal axes: (cart. coord. in units 2 pi/alat)
               b(1) = (  1.000141 -0.577323  0.000000 )  
               b(2) = (  1.000141  0.577323 -0.000000 )  
               b(3) = (  0.000000 -0.000000  1.892407 )  


     PseudoPot. # 1 for Cs read from file:
     /mnt/d/DeepESense/pseudo/SSSP_1.3.0_PBE_efficiency/Cs_pbe_v1.uspp.F.UPF
     MD5 check sum: 3476d69cb178dfad3ffaa59df4e07ca4
     Pseudo is Ultrasoft + core correction, Zval =  9.0
     Generated by new atomic code, or converted to UPF format
     Using radial grid of  905 points,  6 beta functions with: 
                l(1) =   0
                l(2) =   0
                l(3) =   1
                l(4) =   1
                l(5) =   2
                l(6) =   2
     Q(r) pseudized with  6 coefficients,  rinner =    1.500   1.500   1.500
                                                       1.500   1.500

     PseudoPot. # 2 for F  read from file:
     /mnt/d/DeepESense/pseudo/SSSP_1.3.0_PBE_efficiency/f_pbe_v1.4.uspp.F.UPF
     MD5 check sum: 4c38b6a325caf53ec0e86aed9459de46
     Pseudo is Ultrasoft, Zval =  7.0
     Generated by new atomic code, or converted to UPF format
     Using radial grid of  799 points,  4 beta functions with: 
                l(1) =   0
                l(2) =   0
                l(3) =   1
                l(4) =   1
     Q(r) pseudized with  8 coefficients,  rinner =    0.950   0.950   0.950


     PseudoPot. # 3 for Pr read from file:
     /mnt/d/DeepESense/pseudo/SSSP_1.3.0_PBE_efficiency/Pr.paw.z_13.atompaw.wentzcovitch.v1.2.upf
     MD5 check sum: e0f8e046fa815e336ba020f7e7bc75cb
     Pseudo is Projector augmented-wave + core cor, Zval = 13.0
     Generated using ATOMPAW code
     Shape of augmentation charge: BESSEL
     Using radial grid of 1103 points,  8 beta functions with: 
                l(1) =   0
                l(2) =   0
                l(3) =   1
                l(4) =   1
                l(5) =   2
                l(6) =   2
                l(7) =   3
                l(8) =   3
     Q(r) pseudized with 0 coefficients 


     atomic species   valence    mass     pseudopotential
     Cs                9.00   132.90550     Cs( 1.00)
     F                 7.00    18.99840     F ( 1.00)
     Pr               13.00   140.90760     Pr( 1.00)

      4 Sym. Ops. (no inversion) found



   Cartesian axes

     site n.     atom                  positions (alat units)
         1        Cs     tau(   1) = (   0.4999169  -0.2886694   0.2642137  )
         2        Cs     tau(   2) = (   0.4999169   0.2886694   0.2642137  )
         3        Pr     tau(   3) = (   0.0001930   0.0000000   0.0000000  )
         4        F      tau(   4) = (   0.1067759  -0.1848878   0.2642137  )
         5        F      tau(   5) = (   0.7862850   0.0000000   0.2642137  )
         6        F      tau(   6) = (   0.1067759   0.1848878   0.2642137  )
         7        F      tau(   7) = (   0.3363140  -0.5826105   0.5284275  )
         8        F      tau(   8) = (   0.3271028   0.0000000   0.0000000  )
         9        F      tau(   9) = (   0.3363140   0.5826105   0.0000000  )

     number of k points=    35  Marzari-Vanderbilt smearing, width (Ry)=  0.0050
                       cart. coord. in units 2pi/alat
        k(    1) = (   0.0000000   0.0000000   0.0000000), wk =   0.0156250
        k(    2) = (   0.0000000   0.0000000   0.2365509), wk =   0.0312500
        k(    3) = (   0.0000000   0.0000000   0.4731018), wk =   0.0312500
        k(    4) = (   0.0000000   0.0000000   0.7096527), wk =   0.0312500
        k(    5) = (   0.0000000   0.0000000  -0.9462036), wk =   0.0156250
        k(    6) = (   0.2500353   0.1443308   0.0000000), wk =   0.0625000
        k(    7) = (   0.2500353   0.1443308   0.2365509), wk =   0.1250000
        k(    8) = (   0.2500353   0.1443308   0.4731018), wk =   0.1250000
        k(    9) = (   0.2500353   0.1443308   0.7096527), wk =   0.1250000
        k(   10) = (   0.2500353   0.1443308  -0.9462036), wk =   0.0625000
        k(   11) = (  -0.5000706  -0.2886616   0.0000000), wk =   0.0312500
        k(   12) = (  -0.5000706  -0.2886616   0.2365509), wk =   0.0625000
        k(   13) = (  -0.5000706  -0.2886616   0.4731018), wk =   0.0625000
        k(   14) = (  -0.5000706  -0.2886616   0.7096527), wk =   0.0625000
        k(   15) = (  -0.5000706  -0.2886616  -0.9462036), wk =   0.0312500
        k(   16) = (   0.5000706   0.0000000   0.0000000), wk =   0.0312500
        k(   17) = (   0.5000706   0.0000000   0.2365509), wk =   0.0625000
        k(   18) = (   0.5000706   0.0000000   0.4731018), wk =   0.0625000
        k(   19) = (   0.5000706   0.0000000   0.7096527), wk =   0.0625000
        k(   20) = (   0.5000706   0.0000000  -0.9462036), wk =   0.0312500
        k(   21) = (  -0.2500353  -0.4329923   0.0000000), wk =   0.0625000
        k(   22) = (  -0.2500353  -0.4329923   0.2365509), wk =   0.1250000
        k(   23) = (  -0.2500353  -0.4329923   0.4731018), wk =   0.1250000
        k(   24) = (  -0.2500353  -0.4329923   0.7096527), wk =   0.1250000
        k(   25) = (  -0.2500353  -0.4329923  -0.9462036), wk =   0.0625000
        k(   26) = (   0.0000000  -0.2886616   0.0000000), wk =   0.0312500
        k(   27) = (   0.0000000  -0.2886616   0.2365509), wk =   0.0625000
        k(   28) = (   0.0000000  -0.2886616   0.4731018), wk =   0.0625000
        k(   29) = (   0.0000000  -0.2886616   0.7096527), wk =   0.0625000
        k(   30) = (   0.0000000  -0.2886616  -0.9462036), wk =   0.0312500
        k(   31) = (  -1.0001412   0.0000000   0.0000000), wk =   0.0156250
        k(   32) = (  -1.0001412   0.0000000   0.2365509), wk =   0.0312500
        k(   33) = (  -1.0001412   0.0000000   0.4731018), wk =   0.0312500
        k(   34) = (  -1.0001412   0.0000000   0.7096527), wk =   0.0312500
        k(   35) = (  -1.0001412   0.0000000  -0.9462036), wk =   0.0156250

     Dense  grid:   209819 G-vectors     FFT dimensions: (  96,  96,  54)

     Smooth grid:    74261 G-vectors     FFT dimensions: (  72,  72,  36)

     Estimated max dynamical RAM per process >     359.31 MB

     Estimated total dynamical RAM >       2.81 GB

     Initial potential from superposition of free atoms

     starting charge      72.9138, renormalised to      73.0000
     Starting wfcs are   82 randomized atomic wfcs +   67 random wfcs
     Checking if some PAW data can be deallocated... 

     total cpu time spent up to now is       59.7 secs

     per-process dynamical memory:   154.2 Mb

     Self-consistent Calculation

     iteration #  1     ecut=    60.00 Ry     beta= 0.40
     Davidson diagonalization with overlap
     ethr =  1.00E-02,  avg # of iterations =  7.4

     total cpu time spent up to now is      341.4 secs

     total energy              =    -926.63580729 Ry
     estimated scf accuracy    <       2.02825953 Ry

     iteration #  2     ecut=    60.00 Ry     beta= 0.40
     Davidson diagonalization with overlap
     ethr =  2.78E-03,  avg # of iterations =  2.0

     total cpu time spent up to now is      470.7 secs

     total energy              =    -920.34682410 Ry
     estimated scf accuracy    <     120.32524379 Ry

     iteration #  3     ecut=    60.00 Ry     beta= 0.40
     Davidson diagonalization with overlap
     ethr =  2.78E-03,  avg # of iterations =  1.9

     total cpu time spent up to now is      602.4 secs

     total energy              =    -927.53227894 Ry
     estimated scf accuracy    <       1.00205183 Ry

     iteration #  4     ecut=    60.00 Ry     beta= 0.40
     Davidson diagonalization with overlap
     ethr =  1.37E-03,  avg # of iterations =  1.2

     total cpu time spent up to now is      722.0 secs

     total energy              =    -927.51376607 Ry
     estimated scf accuracy    <       0.82488704 Ry

     iteration #  5     ecut=    60.00 Ry     beta= 0.40
     Davidson diagonalization with overlap
     ethr =  1.13E-03,  avg # of iterations =  1.8
     Minimization algorithm failed to find Fermi energy: reverting to bisection
     Possible cause: smearing is larger than the electronic band-gap.

     total cpu time spent up to now is      849.0 secs

     total energy              =    -927.43277837 Ry
     estimated scf accuracy    <       0.71520394 Ry

     iteration #  6     ecut=    60.00 Ry     beta= 0.40
     Davidson diagonalization with overlap
     ethr =  9.80E-04,  avg # of iterations =  2.8

     total cpu time spent up to now is      982.4 secs

     total energy              =    -927.38795144 Ry
     estimated scf accuracy    <       0.49582254 Ry

     iteration #  7     ecut=    60.00 Ry     beta= 0.40
     Davidson diagonalization with overlap
     ethr =  6.79E-04,  avg # of iterations =  3.3

     total cpu time spent up to now is     1121.3 secs

     total energy              =    -927.37433197 Ry
     estimated scf accuracy    <       0.35614479 Ry

     iteration #  8     ecut=    60.00 Ry     beta= 0.40
     Davidson diagonalization with overlap
     ethr =  4.88E-04,  avg # of iterations =  1.8

     total cpu time spent up to now is     1247.9 secs

     total energy              =    -927.35145185 Ry
     estimated scf accuracy    <       0.30068295 Ry

     iteration #  9     ecut=    60.00 Ry     beta= 0.40
     Davidson diagonalization with overlap
     ethr =  4.12E-04,  avg # of iterations =  1.0

     total cpu time spent up to now is     1364.4 secs

     total energy              =    -927.34977364 Ry
     estimated scf accuracy    <       0.21691171 Ry

     iteration # 10     ecut=    60.00 Ry     beta= 0.40
     Davidson diagonalization with overlap
     ethr =  2.97E-04,  avg # of iterations =  1.0

     total cpu time spent up to now is     1473.4 secs

     total energy              =    -927.26932463 Ry
     estimated scf accuracy    <       0.21566295 Ry

     iteration # 11     ecut=    60.00 Ry     beta= 0.40
     Davidson diagonalization with overlap
     ethr =  2.95E-04,  avg # of iterations =  1.9

     total cpu time spent up to now is     1592.0 secs

     total energy              =    -927.37701512 Ry
     estimated scf accuracy    <       0.23023300 Ry

     iteration # 12     ecut=    60.00 Ry     beta= 0.40
     Davidson diagonalization with overlap
     ethr =  2.95E-04,  avg # of iterations =  1.1

     total cpu time spent up to now is     1707.6 secs

     total energy              =    -926.97791098 Ry
     estimated scf accuracy    <      47.57296459 Ry

     iteration # 13     ecut=    60.00 Ry     beta= 0.40
     Davidson diagonalization with overlap
     ethr =  2.95E-04,  avg # of iterations =  1.2

     total cpu time spent up to now is     1821.3 secs

     total energy              =    -927.34334221 Ry
     estimated scf accuracy    <       0.59857171 Ry

     iteration # 14     ecut=    60.00 Ry     beta= 0.40
     Davidson diagonalization with overlap
     ethr =  2.95E-04,  avg # of iterations =  1.0

     total cpu time spent up to now is     1931.9 secs

     total energy              =    -927.28561594 Ry
     estimated scf accuracy    <       1.15658591 Ry

     iteration # 15     ecut=    60.00 Ry     beta= 0.40
     Davidson diagonalization with overlap
     ethr =  2.95E-04,  avg # of iterations =  1.0

     total cpu time spent up to now is     2041.2 secs

     total energy              =    -927.32174975 Ry
     estimated scf accuracy    <       0.04160322 Ry

     iteration # 16     ecut=    60.00 Ry     beta= 0.40
     Davidson diagonalization with overlap
     ethr =  5.70E-05,  avg # of iterations =  1.0

     total cpu time spent up to now is     2153.3 secs

     total energy              =    -927.31867754 Ry
     estimated scf accuracy    <       0.49358542 Ry

     iteration # 17     ecut=    60.00 Ry     beta= 0.40
     Davidson diagonalization with overlap
     ethr =  5.70E-05,  avg # of iterations =  1.0

     total cpu time spent up to now is     2264.8 secs

     total energy              =    -927.31503747 Ry
     estimated scf accuracy    <       0.19161183 Ry

     iteration # 18     ecut=    60.00 Ry     beta= 0.40
     Davidson diagonalization with overlap
     ethr =  5.70E-05,  avg # of iterations =  1.0

     total cpu time spent up to now is     2378.7 secs

     total energy              =    -927.32165461 Ry
     estimated scf accuracy    <       0.07789708 Ry

     iteration # 19     ecut=    60.00 Ry     beta= 0.40
     Davidson diagonalization with overlap
     ethr =  5.70E-05,  avg # of iterations =  1.1

     total cpu time spent up to now is     2493.8 secs

     total energy              =    -927.29821523 Ry
     estimated scf accuracy    <       0.27338064 Ry

     iteration # 20     ecut=    60.00 Ry     beta= 0.40
     Davidson diagonalization with overlap
     ethr =  5.70E-05,  avg # of iterations =  1.1

     total cpu time spent up to now is     2604.3 secs

     total energy              =    -927.31128770 Ry
     estimated scf accuracy    <       0.00127731 Ry

     iteration # 21     ecut=    60.00 Ry     beta= 0.40
     Davidson diagonalization with overlap
     ethr =  1.75E-06,  avg # of iterations =  3.3

     total cpu time spent up to now is     2740.0 secs

     total energy              =    -927.31189685 Ry
     estimated scf accuracy    <       0.00448919 Ry

     iteration # 22     ecut=    60.00 Ry     beta= 0.40
     Davidson diagonalization with overlap
     ethr =  1.75E-06,  avg # of iterations =  1.0

     total cpu time spent up to now is     2854.5 secs

     total energy              =    -927.31198568 Ry
     estimated scf accuracy    <       0.00325463 Ry

     iteration # 23     ecut=    60.00 Ry     beta= 0.40
     Davidson diagonalization with overlap
     ethr =  1.75E-06,  avg # of iterations =  1.0

     total cpu time spent up to now is     2965.8 secs

     total energy              =    -927.31157880 Ry
     estimated scf accuracy    <       0.00440745 Ry

     iteration # 24     ecut=    60.00 Ry     beta= 0.40
     Davidson diagonalization with overlap
     ethr =  1.75E-06,  avg # of iterations =  1.0

     total cpu time spent up to now is     3078.7 secs

     total energy              =    -927.31156128 Ry
     estimated scf accuracy    <       0.00098865 Ry

     iteration # 25     ecut=    60.00 Ry     beta= 0.40
     Davidson diagonalization with overlap
     ethr =  1.35E-06,  avg # of iterations =  1.0

     total cpu time spent up to now is     3190.6 secs

     total energy              =    -927.31159329 Ry
     estimated scf accuracy    <       0.00008361 Ry

     iteration # 26     ecut=    60.00 Ry     beta= 0.40
     Davidson diagonalization with overlap
     ethr =  1.15E-07,  avg # of iterations =  1.0

     total cpu time spent up to now is     3314.3 secs

     total energy              =    -927.31159338 Ry
     estimated scf accuracy    <       0.00001424 Ry

     iteration # 27     ecut=    60.00 Ry     beta= 0.40
     Davidson diagonalization with overlap
     ethr =  1.95E-08,  avg # of iterations =  1.0

     total cpu time spent up to now is     3428.8 secs

     total energy              =    -927.31159424 Ry
     estimated scf accuracy    <       0.00000030 Ry

     iteration # 28     ecut=    60.00 Ry     beta= 0.40
     Davidson diagonalization with overlap
     ethr =  4.15E-10,  avg # of iterations =  2.0

     total cpu time spent up to now is     3555.4 secs

     total energy              =    -927.31159409 Ry
     estimated scf accuracy    <       0.00000187 Ry

     iteration # 29     ecut=    60.00 Ry     beta= 0.40
     Davidson diagonalization with overlap
     ethr =  4.15E-10,  avg # of iterations =  2.0

     total cpu time spent up to now is     3676.3 secs

     total energy              =    -927.31159429 Ry
     estimated scf accuracy    <       0.00000007 Ry

     iteration # 30     ecut=    60.00 Ry     beta= 0.40
     Davidson diagonalization with overlap
     ethr =  1.02E-10,  avg # of iterations =  1.0

     total cpu time spent up to now is     3792.9 secs

     End of self-consistent calculation

          k = 0.0000 0.0000 0.0000 (  9257 PWs)   bands (ev):

   -30.8047 -17.0338 -17.0325 -17.0188 -16.3512 -16.3424 -16.2525 -14.3459
   -14.3197 -12.3161 -11.9052 -11.9048  -1.6699  -1.6697  -1.1081  -1.1079
    -0.7841  -0.5525   0.3472   0.9133   0.9211   1.3226   1.3263   1.6179
     1.7412   1.7697   1.9510   1.9530   2.4443   2.4527   2.5477   2.5498
     2.7454   2.7458   2.7870   2.9011   4.2447   4.2645   4.2947   4.2954
     4.3594   4.4985   4.4989   9.9900  10.7947  10.7962  11.0820  11.5756
    11.7581  12.1876  12.1945  13.0852  13.0855  13.5264  13.5298  14.8041
    14.8043  15.9605  15.9613  16.2100  17.0455  17.0458  17.3462  17.7225
    17.9282  17.9287  19.7055  19.7089  20.1969  20.3308  20.3343  21.3126
    21.3840  21.4160  21.4360  21.4385  22.5770  22.9227  22.9242  23.1367
    23.1393  23.6666  23.8072  24.0543  24.1874  24.9418  24.9440  25.9114
    25.9165  26.2178  26.2824  26.2850  27.0951  28.0364  28.1482  28.1521
    28.1672  28.3019  28.3084  29.0216  29.9544  30.0228  30.0242  30.9061
    30.9077  31.0152  31.4167  31.4190  31.7614  31.7662  32.1226  32.2918
    32.6413  33.6853  33.6857  33.8159  34.6975  34.9793  34.9813  35.1528
    35.5676  35.6580  35.6582  36.4348  36.6331  36.6343  36.9403  36.9504
    37.3112  37.3158  37.6200  37.8709  38.3621  38.7256  38.8297  38.8363
    39.1508  39.1527  39.9214  39.9830  39.9876  40.0411  40.6948  40.7011
    41.0583  41.6908  41.7704  41.7741  41.8604

          k = 0.0000 0.0000 0.2366 (  9234 PWs)   bands (ev):

   -30.7979 -17.0890 -17.0045 -17.0007 -16.3612 -16.3523 -16.2563 -14.3247
   -14.3119 -12.2407 -11.9435 -11.9427  -1.6581  -1.6580  -1.0950  -1.0948
    -0.9906  -0.8261   0.4466   0.8892   0.8943   1.4376   1.4396   1.5011
     1.8365   1.8751   1.9359   1.9376   2.3944   2.3987   2.5086   2.5093
     2.7825   2.7866   2.7888   2.7967   4.2453   4.2485   4.2852   4.2858
     4.3848   4.4861   4.4866  10.3689  10.7564  10.7578  11.2778  12.0231
    12.1309  12.1581  12.1633  13.1341  13.1342  13.5563  13.5584  14.2791
    14.2795  15.2178  15.2180  16.3190  17.4601  17.6737  17.6745  17.7517
    18.8056  18.8069  19.8157  19.9501  19.9530  20.6055  20.6086  21.1886
    21.1912  21.2688  21.3801  21.3991  22.1454  22.2513  22.2517  23.3752
    23.7367  23.7367  23.9718  24.2137  24.2436  25.1027  25.1044  25.4535
    25.4583  26.2687  26.7565  26.7567  26.9734  27.3653  27.9801  28.0572
    28.0580  28.3841  28.6254  28.6282  28.6389  30.0210  30.0219  30.7392
    31.3277  31.3287  31.4361  31.4384  31.4624  31.9570  31.9606  31.9683
    33.6704  33.6714  33.8028  33.9584  34.2913  34.2926  34.3691  35.1383
    35.1414  35.2748  35.9942  35.9958  36.7917  37.2131  37.2213  37.2284
    37.2591  37.4694  37.4731  38.0349  38.5053  38.5117  38.5468  38.6956
    39.3284  39.3316  39.4211  39.4267  39.7694  40.0087  41.0838  41.0873
    41.5258  41.5292  41.8459  41.9810  41.9869

          k = 0.0000 0.0000 0.4731 (  9268 PWs)   bands (ev):

   -30.7816 -17.2523 -16.9267 -16.9227 -16.3918 -16.3823 -16.2552 -14.2922
   -14.2728 -12.0695 -12.0361 -12.0346  -1.6380  -1.6376  -1.4421  -1.3871
    -1.0496  -1.0496   0.6821   0.9153   0.9179   1.3649   1.6110   1.6125
     1.8778   1.8782   1.9740   2.0290   2.3576   2.3613   2.3916   2.3946
     2.5342   2.7726   2.8508   2.8537   4.2263   4.2470   4.2670   4.2676
     4.4260   4.4465   4.4471  10.7455  10.7471  10.9757  11.8375  12.0022
    12.0049  12.9932  12.9944  13.0299  13.5031  13.5033  13.6638  13.6659
    13.6677  14.6810  14.6831  16.6081  17.6894  17.8293  18.2045  18.2066
    19.2891  19.3932  19.3946  20.6186  20.6204  20.9546  21.1597  21.1603
    21.3129  21.3782  21.4945  21.6135  21.6142  22.2532  22.2535  22.7344
    23.9583  23.9628  23.9918  24.2754  24.4192  24.8097  24.8100  24.8517
    25.3423  25.3429  25.8191  25.8854  26.5458  27.3910  27.3933  27.4466
    28.1667  28.1948  28.1955  29.3144  29.3184  29.9337  29.9338  31.0130
    31.4876  31.4904  31.8184  31.9289  32.1453  32.1460  32.5319  32.5329
    32.9544  32.9581  33.3787  33.3808  33.9341  34.3645  34.3666  34.5895
    34.6772  34.6789  34.8628  35.8312  36.5996  36.6027  36.8310  37.2559
    37.2592  37.2775  37.3547  37.4920  38.5292  38.5300  38.8718  38.8757
    39.2949  39.4632  39.4647  40.1219  40.1229  40.1609  40.2281  40.5538
    41.1177  41.1179  41.3209  41.3250  42.5908

          k = 0.0000 0.0000 0.7097 (  9306 PWs)   bands (ev):

   -30.7652 -17.4123 -16.8332 -16.8279 -16.4380 -16.4271 -16.2455 -14.2715
   -14.2195 -12.1292 -12.1271 -11.9112  -1.8632  -1.8451  -1.6302  -1.6292
    -0.9818  -0.9817   0.8932   1.0309   1.0333   1.3056   1.5641   1.5674
     1.9161   1.9179   2.0032   2.2105   2.2117   2.2354   2.3279   2.4377
     2.4442   2.6759   2.8793   2.8846   4.2137   4.2493   4.2554   4.2560
     4.3945   4.3952   4.4546  10.8593  10.8612  11.2579  11.6753  11.6767
    12.6032  12.6714  12.6731  13.1309  13.1325  13.5423  13.5424  14.4294
    14.9057  14.9073  15.8315  17.2009  17.9084  17.9287  18.0667  18.0707
    19.2187  19.4310  19.4332  20.1915  20.1929  20.2912  20.8456  21.3643
    21.3885  21.8865  21.9877  21.9902  22.3212  22.4822  23.1831  23.1842
    23.4734  23.4761  24.0659  24.2636  24.2873  24.2883  24.3889  24.3893
    24.9024  25.0255  25.1319  25.1322  25.8383  26.5534  28.0099  28.0126
    28.0560  28.0590  28.2824  29.6660  29.6661  30.4032  30.4046  30.8996
    30.9054  31.5249  31.5255  31.6646  31.6654  32.0716  32.6744  32.7367
    33.4016  33.4037  33.5378  33.5392  33.6030  34.0414  34.0420  34.4353
    34.4375  35.1388  35.1956  36.0529  36.0569  36.2318  36.4480  36.4586
    36.6469  37.0473  37.5267  37.7319  37.7351  37.7989  38.4984  38.5006
    38.7146  38.7185  39.8723  39.8744  39.9892  40.4451  40.5971  40.7745
    40.7773  41.3091  41.3110  41.3877  42.0748

          k = 0.0000 0.0000-0.9462 (  9330 PWs)   bands (ev):

   -30.7584 -17.4770 -16.7855 -16.7789 -16.4666 -16.4543 -16.2399 -14.2627
   -14.1971 -12.1679 -12.1656 -11.8488  -2.0436  -2.0012  -1.6304  -1.6292
    -0.9463  -0.9462   0.9544   1.1289   1.1332   1.3165   1.4539   1.4598
     1.9871   1.9959   2.0007   2.1086   2.1112   2.2576   2.3711   2.4799
     2.4885   2.5750   2.8814   2.8882   4.2104   4.2504   4.2530   4.2536
     4.3691   4.3698   4.4643  10.9776  10.9797  11.3390  11.4607  11.4618
    12.5421  12.5439  12.9588  12.9599  13.0006  13.5468  13.5470  14.9173
    15.0926  15.0940  17.4253  17.8796  17.8842  17.9436  18.0817  18.6923
    19.2571  19.4603  19.4628  19.7126  19.9953  19.9967  20.0299  20.3361
    20.8637  21.3854  21.4471  21.7586  22.3404  22.3452  23.5677  23.5687
    23.7691  24.1331  24.1333  24.1363  24.1369  24.2359  25.0782  25.2638
    25.2663  25.2777  25.3684  25.3696  25.3901  25.9419  27.1828  27.1892
    28.2364  28.2368  28.4523  29.5455  29.5467  30.2354  30.2426  30.7824
    30.7832  31.3171  31.3180  31.4443  31.4455  31.9346  32.8215  32.8238
    32.8908  33.1839  33.6644  33.6708  34.4886  34.4908  35.0728  35.2055
    35.2097  35.4568  35.4577  35.9045  35.9172  36.0362  36.0366  36.2233
    36.3860  36.9536  37.1262  37.1268  37.4277  37.4628  37.4681  38.5404
    38.5463  39.1482  39.2392  39.7001  40.1224  40.1233  40.3019  40.3038
    40.4453  41.3167  41.6513  41.6712  41.6764

          k = 0.2500 0.1443 0.0000 (  9257 PWs)   bands (ev):

   -30.8047 -17.0558 -17.0355 -16.9992 -16.3540 -16.3473 -16.2347 -14.3421
   -14.3303 -12.3160 -11.9057 -11.9016  -1.6494  -1.5845  -1.2366  -1.1555
    -0.7622  -0.5830   0.4678   0.9119   0.9446   1.3317   1.3920   1.6548
     1.6987   1.7163   1.8593   2.0316   2.4756   2.4824   2.5053   2.5498
     2.6085   2.7155   2.8513   2.8547   4.2515   4.2626   4.2971   4.2991
     4.3567   4.4853   4.4922  10.2964  10.7978  10.9282  11.2986  11.4887
    11.7529  12.1761  12.1855  12.7521  12.8368  13.3107  13.9340  14.8495
    14.9419  15.7601  15.9005  16.0551  16.2010  16.9315  17.6052  17.8308
    18.5153  18.7643  19.0433  19.1678  20.1978  20.3313  21.0519  21.2376
    21.3653  21.3846  21.4318  22.1597  22.4237  22.5434  22.7867  22.9797
    23.0534  23.6669  23.7343  23.8190  24.5099  24.5923  24.8291  25.6380
    26.0033  26.4755  26.5685  26.7442  27.1604  27.6621  27.8256  27.9849
    28.2091  28.4319  28.4394  28.9603  29.8623  30.1707  30.4676  30.5997
    31.1951  31.2837  31.6169  31.7731  31.9481  32.1918  32.3956  32.5720
    32.8326  33.1583  33.4130  34.0256  34.3041  34.3431  34.6759  34.9607
    35.1974  35.3247  35.5594  36.1639  36.2298  36.3281  36.7740  36.9888
    37.0490  37.4226  37.5744  37.9258  38.0548  38.0904  38.7088  38.8532
    38.9985  39.8961  39.9174  40.3699  40.5680  40.7004  41.0266  41.1001
    41.3240  41.4341  41.7584  42.2899  42.3035

          k = 0.2500 0.1443 0.2366 (  9245 PWs)   bands (ev):

   -30.7979 -17.0800 -17.0153 -17.0057 -16.3635 -16.3566 -16.2391 -14.3231
   -14.3187 -12.2413 -11.9438 -11.9398  -1.6355  -1.5676  -1.2174  -1.1459
    -0.9697  -0.8420   0.5584   0.8637   0.9309   1.4272   1.4743   1.5396
     1.7223   1.8205   1.8596   2.0416   2.3579   2.4369   2.5104   2.5390
     2.6632   2.7332   2.8393   2.8534   4.2485   4.2499   4.2875   4.2883
     4.3823   4.4735   4.4795  10.6194  10.7848  10.9020  11.4672  11.9833
    12.0297  12.1698  12.1886  12.7880  12.9302  13.2977  13.6546  14.4029
    14.5801  15.1194  15.1924  16.5205  16.8938  17.0443  17.8459  18.1320
    19.0756  19.2478  19.4787  19.6232  20.0055  20.5286  20.7328  20.8267
    21.3711  21.3847  21.4448  22.0279  22.1538  22.3414  22.4589  23.0008
    23.2566  23.7105  23.8512  24.1118  24.6122  24.7770  24.8637  25.5995
    25.6682  26.0934  26.6279  27.0010  27.2109  27.3103  28.0093  28.1102
    28.1841  28.2235  28.3853  28.5987  29.1510  29.8411  30.1232  30.8565
    31.0967  31.3019  31.5463  31.7373  32.0080  32.2200  32.4805  32.7066
    32.7671  33.1510  33.5920  33.7077  34.0106  34.3297  34.4023  34.7651
    35.0606  35.2965  35.7754  35.8971  36.2394  36.4982  36.9189  37.1285
    37.4207  37.5989  37.7129  38.1058  38.2543  38.3630  38.6052  38.9817
    39.2286  39.5274  39.9142  40.0435  40.4131  40.6319  40.9537  41.2417
    41.4023  41.5512  41.7144  41.8679  42.2739

          k = 0.2500 0.1443 0.4731 (  9276 PWs)   bands (ev):

   -30.7816 -17.2440 -16.9378 -16.9277 -16.3933 -16.3854 -16.2418 -14.2917
   -14.2743 -12.0717 -12.0360 -12.0324  -1.6183  -1.5381  -1.4390  -1.3917
    -1.1518  -1.0728   0.7646   0.8606   0.9553   1.3250   1.5404   1.6151
     1.7803   1.8004   1.9439   2.0827   2.2743   2.4205   2.4315   2.4689
     2.6267   2.7532   2.8440   2.8975   4.2304   4.2459   4.2668   4.2703
     4.4224   4.4379   4.4404  10.7469  10.8810  11.0787  11.8646  12.0073
    12.2399  12.6798  12.8572  12.9788  13.1356  13.2623  13.5947  14.0212
    14.0665  14.5787  14.9412  16.8355  17.2341  17.5301  18.0460  18.2492
    18.9601  19.4943  19.8807  20.5253  20.6578  20.7754  21.1012  21.2719
    21.3414  21.3842  21.4297  21.8524  21.9906  22.1243  22.5236  22.9154
    23.1397  23.5754  23.9001  24.2494  24.4748  24.6901  25.0511  25.2001
    25.3053  25.5364  26.0339  26.0404  26.4483  26.7149  27.4005  27.8933
    28.0635  28.4404  28.5404  28.9991  29.4046  29.9609  30.1260  31.1031
    31.3164  31.3882  31.8122  31.9663  32.0439  32.1868  32.3147  32.5843
    32.7804  32.8931  33.2816  33.3684  33.7827  34.0618  34.1971  34.4600
    34.7171  35.1416  35.2352  35.8112  36.1992  36.6822  36.8183  37.0275
    37.1141  37.6974  37.9067  38.0474  38.5179  38.7666  38.9606  39.1890
    39.3443  39.4678  39.6396  39.8522  40.0556  40.5337  40.6198  40.6718
    41.1744  41.3167  41.4552  41.5315  41.9893

          k = 0.2500 0.1443 0.7097 (  9280 PWs)   bands (ev):

   -30.7652 -17.4061 -16.8398 -16.8331 -16.4401 -16.4293 -16.2376 -14.2623
   -14.2251 -12.1288 -12.1259 -11.9146  -1.8657  -1.8609  -1.5876  -1.5079
    -1.0744  -1.0033   0.8943   0.9754   1.0429   1.3331   1.3847   1.4559
     1.8643   1.9277   1.9833   2.1427   2.2451   2.2890   2.4340   2.5108
     2.5398   2.6787   2.9140   2.9196   4.2213   4.2419   4.2543   4.2580
     4.3893   4.3919   4.4493  10.8530  11.0008  11.1959  11.6447  11.6990
    12.3258  12.5548  12.8115  13.2473  13.2743  13.5332  13.5503  14.5568
    14.7832  15.2164  15.7512  17.0912  17.5071  17.5887  18.0407  18.4869
    18.7546  19.4388  19.5510  20.1534  20.4198  20.9976  21.0913  21.3472
    21.3789  21.5275  21.8491  22.0096  22.2862  22.4003  22.5564  22.7483
    23.5611  23.6634  23.8710  23.9326  23.9971  24.3187  24.4001  24.6846
    24.9765  25.3266  25.5617  25.7940  26.2863  26.9838  27.6720  27.7469
    28.0324  28.4451  28.5494  29.3107  29.4624  29.7713  30.2529  30.6392
    30.7789  31.1217  31.3249  31.6316  31.9621  32.0340  32.4231  32.5686
    32.8892  33.0887  33.4892  33.7491  34.0480  34.1526  34.3763  34.8207
    34.9620  35.2132  35.2867  35.8130  36.1242  36.4009  36.6046  36.7310
    37.0982  37.1893  37.8089  37.9129  38.1668  38.2154  38.7106  38.8420
    39.0464  39.2909  39.4836  39.8311  39.8707  40.2282  40.4745  40.7137
    40.8971  41.1159  41.2318  41.5202  41.5962

          k = 0.2500 0.1443-0.9462 (  9288 PWs)   bands (ev):

   -30.7584 -17.4716 -16.7895 -16.7836 -16.4701 -16.4562 -16.2345 -14.2497
   -14.2042 -12.1675 -12.1647 -11.8528  -2.0409  -2.0166  -1.5886  -1.5034
    -1.0374  -0.9649   0.9065   1.1419   1.1658   1.1668   1.2900   1.4195
     1.9056   1.9840   2.0374   2.1050   2.1526   2.3374   2.4658   2.4713
     2.5122   2.6662   2.9107   2.9452   4.2193   4.2401   4.2519   4.2551
     4.3644   4.3700   4.4576  10.9130  11.1235  11.3518  11.4046  11.4439
    12.1758  12.4667  13.1677  13.2242  13.2521  13.4327  13.4667  14.9630
    15.0445  15.3640  16.9733  17.5201  17.6299  18.0539  18.5445  18.8176
    18.8780  19.2813  19.3693  19.5969  19.9374  20.2757  20.6068  20.9158
    21.2023  21.3146  21.4248  21.5227  22.0998  22.1947  22.4305  22.4399
    23.7456  23.9098  24.0083  24.4208  24.7108  24.8297  24.9259  25.1304
    25.1950  25.3315  25.8375  26.0290  26.1851  26.8882  27.3462  27.5504
    27.8849  28.0152  28.2936  28.8711  29.0791  29.8728  30.0281  30.0982
    30.4764  30.8759  31.1118  31.3533  31.6357  32.3248  32.3634  32.9014
    33.0243  33.5546  33.9252  34.1145  34.2804  34.4727  34.9166  35.0648
    35.3013  35.4461  35.6057  35.6850  36.1152  36.2575  36.2777  36.6330
    36.7404  37.0738  37.2238  37.8065  38.2094  38.3491  38.4264  38.6456
    38.8954  38.9083  39.3129  39.4383  39.7338  39.9605  40.3203  40.4185
    40.6438  40.9267  41.1891  41.2779  41.3757

          k =-0.5001-0.2887 0.0000 (  9246 PWs)   bands (ev):

   -30.8047 -17.0676 -17.0380 -16.9903 -16.3587 -16.3495 -16.2174 -14.3449
   -14.3344 -12.3160 -11.9064 -11.8983  -1.6288  -1.4719  -1.3612  -1.2105
    -0.7238  -0.6309   0.5755   0.9089   0.9758   1.2886   1.4405   1.6599
     1.6817   1.7698   1.7865   2.0936   2.3533   2.3988   2.5129   2.5882
     2.6192   2.7401   2.7761   2.8814   4.2599   4.2609   4.2995   4.3027
     4.3536   4.4692   4.4862  10.7191  10.9068  11.0379  11.1630  11.3830
    12.1652  12.1769  12.2246  12.2629  12.6791  12.9782  14.7819  14.8990
    15.0035  15.2283  15.4129  15.5725  15.8358  17.2246  18.0330  18.2684
    18.5679  18.9042  19.0361  19.6133  19.8255  20.5651  20.8549  21.3375
    21.3718  21.3740  21.3978  21.7015  21.7517  22.5615  22.9847  23.0268
    23.1508  23.5130  23.7933  23.9305  24.4015  24.5888  24.7831  26.0245
    26.1967  26.2902  26.4443  26.4894  27.3504  27.5476  27.8993  28.4202
    28.5214  28.5425  28.6435  28.6538  29.9847  30.4795  30.6004  30.6914
    31.1707  31.4933  31.6559  31.7348  31.8650  32.1122  32.1534  32.8542
    32.8574  33.3016  33.3447  33.7823  33.8933  34.1122  34.6137  34.7195
    34.9007  35.2260  35.3394  35.7969  35.8663  35.9755  36.4291  36.8474
    37.0215  37.4669  37.5410  37.7618  38.1084  38.5522  39.1800  39.2218
    39.5379  40.0881  40.3126  40.3848  40.4278  40.4569  40.7155  40.7362
    41.5212  42.3226  42.3269  42.4630  42.7422

          k =-0.5001-0.2887 0.2366 (  9268 PWs)   bands (ev):

   -30.7979 -17.0640 -17.0354 -17.0082 -16.3674 -16.3586 -16.2226 -14.3292
   -14.3178 -12.2420 -11.9442 -11.9367  -1.6104  -1.4605  -1.3247  -1.2075
    -0.9294  -0.8764   0.6612   0.8167   0.9597   1.3952   1.5026   1.5483
     1.7505   1.7714   1.8245   2.0264   2.2963   2.4037   2.5259   2.5760
     2.6921   2.7620   2.8076   2.8453   4.2481   4.2555   4.2906   4.2913
     4.3791   4.4583   4.4732  10.7266  11.0881  11.1233  11.4299  11.7555
    12.1096  12.1746  12.3474  12.4881  12.7741  13.0503  13.6547  14.6991
    14.8516  15.0204  15.3068  15.8629  15.9716  17.3959  18.6049  18.6270
    19.0973  19.1410  19.6477  19.7084  19.9019  20.2624  20.5887  20.6243
    21.3595  21.3692  21.4001  21.8016  22.0775  22.5561  22.6042  22.8169
    23.1949  23.5477  23.8747  24.0475  24.6364  24.7672  24.8216  26.0266
    26.1034  26.1982  26.4930  26.6879  27.2498  27.2564  27.6457  28.0081
    28.1603  28.4477  28.6075  29.2992  29.6643  29.8894  30.0685  30.4934
    30.9195  31.1595  31.4493  31.9900  32.1446  32.3009  32.3387  32.3518
    32.8735  33.1656  33.3489  33.7095  34.0479  34.3053  34.3735  34.8128
    34.9792  35.0538  35.3814  35.8451  35.9604  36.6271  36.7661  36.8507
    37.4588  37.5798  37.8643  37.9282  38.2197  38.7001  38.7303  39.4288
    39.5405  39.5537  39.9354  40.1853  40.4334  40.5074  40.9631  41.1854
    41.2327  41.8029  41.9142  42.1330  42.2605

          k =-0.5001-0.2887 0.4731 (  9286 PWs)   bands (ev):

   -30.7816 -17.2350 -16.9520 -16.9300 -16.3952 -16.3876 -16.2290 -14.2900
   -14.2770 -12.0738 -12.0361 -12.0301  -1.5880  -1.4724  -1.4406  -1.3674
    -1.2299  -1.0920   0.7240   0.8759   0.9697   1.3054   1.4709   1.5657
     1.7982   1.8106   1.8811   2.0131   2.2959   2.4632   2.4775   2.5262
     2.6812   2.7365   2.8511   2.9190   4.2346   4.2449   4.2675   4.2730
     4.4175   4.4285   4.4342  10.7243  11.0733  11.1892  11.9435  11.9615
    12.2638  12.5666  12.6468  12.9903  13.0332  13.2237  13.5147  14.1051
    14.2045  14.7044  15.4132  15.9386  16.8835  17.5950  18.2247  18.9149
    19.1600  19.3659  19.6654  20.0749  20.7122  20.7809  20.9846  21.2034
    21.3794  21.3814  21.5319  21.8883  22.1818  22.1940  22.4455  22.8497
    22.8636  23.4711  23.8320  24.2120  24.5279  24.8573  25.0921  25.3626
    25.5475  25.9533  25.9933  26.0258  26.1386  26.9499  27.4679  27.8018
    28.1127  28.3442  28.7069  28.8942  29.5067  30.0932  30.3041  30.7891
    31.0775  31.3985  31.6465  31.9176  32.0027  32.0398  32.1919  32.3755
    32.6070  32.7372  32.9001  33.5458  33.8413  33.9735  34.4340  34.6034
    35.0616  35.1771  35.4474  36.3217  36.5110  36.8802  37.0045  37.1476
    37.3509  37.3819  37.7071  38.0160  38.6652  38.8934  38.9656  39.0095
    39.3132  39.4178  39.6964  39.8731  40.4686  40.4867  40.6239  40.7495
    41.0730  41.1034  41.4981  41.8754  41.8925

          k =-0.5001-0.2887 0.7097 (  9294 PWs)   bands (ev):

   -30.7652 -17.3998 -16.8490 -16.8356 -16.4421 -16.4314 -16.2299 -14.2487
   -14.2349 -12.1286 -12.1245 -11.9181  -1.8767  -1.8656  -1.5442  -1.3704
    -1.1537  -1.0275   0.7717   0.9243   1.0455   1.3020   1.3719   1.3756
     1.8697   1.8760   1.9650   2.1648   2.2385   2.3198   2.4693   2.6234
     2.6287   2.6669   2.9370   2.9538   4.2314   4.2346   4.2504   4.2603
     4.3841   4.3878   4.4443  10.7570  11.1816  11.2313  11.6719  11.8600
    11.9103  12.6460  12.6546  13.2183  13.2958  13.4542  13.6258  15.0286
    15.0489  15.5827  15.6740  16.0649  17.3702  17.7652  17.9167  18.4268
    18.7228  19.2630  19.7179  20.3792  20.6527  20.7042  21.2976  21.3210
    21.3786  21.3941  21.8337  21.9178  22.0150  22.5139  22.6526  23.1047
    23.3019  23.3253  23.7317  23.8501  24.0976  24.1549  24.6028  25.1409
    25.2131  25.6831  25.8479  25.9073  25.9274  26.8661  27.3671  27.9043
    28.0880  28.4949  28.7142  29.2189  29.5693  29.5997  30.2056  30.5029
    30.7862  30.8607  31.0874  31.3728  31.6257  32.1905  32.2862  32.6223
    32.8430  32.9350  33.4011  33.7478  33.8748  34.3650  34.3909  34.9715
    35.2529  35.5723  35.6826  35.8378  35.8950  36.6822  36.9927  37.1375
    37.2618  37.9941  38.0805  38.0880  38.2609  38.6529  38.7505  38.9427
    38.9787  39.2076  39.3627  39.6776  39.7945  39.9729  40.3020  40.4006
    40.5883  41.0948  41.2824  41.4420  41.4490

          k =-0.5001-0.2887-0.9462 (  9312 PWs)   bands (ev):

   -30.7584 -17.4660 -16.7952 -16.7868 -16.4736 -16.4579 -16.2294 -14.2309
   -14.2170 -12.1672 -12.1638 -11.8567  -2.0363  -2.0338  -1.5425  -1.3501
    -1.1285  -0.9859   0.8607   0.8800   1.1638   1.1712   1.1991   1.4988
     1.8483   1.9354   2.1238   2.1335   2.1572   2.2423   2.5370   2.5641
     2.6092   2.7041   2.9407   2.9806   4.2302   4.2321   4.2463   4.2571
     4.3597   4.3693   4.4513  10.7302  11.3318  11.4412  11.4573  11.6554
    11.6865  12.5414  12.8295  13.2456  13.3651  13.4150  13.5152  15.3937
    15.6397  15.7155  16.1833  17.0315  17.3706  17.8732  18.4856  18.6400
    19.0555  19.0760  19.5791  20.0076  20.2342  20.4323  20.5485  20.7218
    20.8795  21.3214  21.3959  21.5015  21.8195  21.9503  22.8473  23.0691
    23.2990  23.5378  24.3082  24.6327  24.7902  24.8879  24.9564  25.1502
    25.2855  25.4473  25.8266  26.1451  26.2783  26.3954  27.3216  27.8478
    28.1606  28.3491  28.4152  28.5630  29.2335  29.5381  29.5788  29.6998
    30.3302  30.4645  30.6739  31.6044  32.2141  32.3365  32.5640  32.7333
    32.9137  33.3378  33.6930  34.4145  34.4493  34.4910  34.8031  34.8634
    35.3439  35.4972  35.7711  35.8707  35.9926  36.6805  36.7829  36.9277
    37.0238  37.4632  37.7831  37.7979  38.0545  38.3304  38.4219  38.5899
    38.9137  39.2299  39.2373  39.6949  39.7696  39.9970  40.1576  40.5335
    40.8438  40.8746  41.2917  41.4556  41.6054

          k = 0.5001 0.0000 0.0000 (  9265 PWs)   bands (ev):

   -30.8047 -17.0607 -17.0466 -16.9888 -16.3550 -16.3526 -16.2178 -14.3401
   -14.3392 -12.3160 -11.9045 -11.9001  -1.6523  -1.4618  -1.3490  -1.2021
    -0.7200  -0.6354   0.5691   0.9247   0.9612   1.3207   1.3919   1.6586
     1.7173   1.7221   1.7693   2.1265   2.3706   2.3948   2.5393   2.5578
     2.6413   2.7205   2.7809   2.8799   4.2603   4.2609   4.3000   4.3022
     4.3536   4.4741   4.4809  10.7213  10.8535  11.0628  11.2340  11.3425
    11.9721  12.1660  12.1766  12.3108  12.8603  13.2763  14.2071  14.9100
    15.0228  15.1633  15.4973  15.7914  15.8042  17.6737  17.7072  18.0577
    18.6881  18.9984  19.3559  19.3835  19.8861  20.5285  20.7853  20.9062
    21.3096  21.3477  21.3757  21.8056  21.8723  22.8338  22.8740  22.9329
    23.1405  23.7124  23.8222  23.8652  24.3039  24.6577  25.1916  25.9026
    25.9055  26.0601  26.2385  26.3967  27.1267  27.9046  28.1684  28.3620
    28.6014  28.7935  28.9604  29.1190  29.9480  30.1508  30.3806  30.8978
    31.0689  31.2036  31.3953  31.7065  31.9005  32.1425  32.4057  32.5582
    32.8987  32.9188  33.4173  33.8069  33.8889  34.0940  34.3330  34.5553
    34.6881  34.7210  35.3003  35.9913  36.5907  36.7747  36.9100  36.9610
    37.1227  37.6444  37.6555  37.8028  37.9987  38.1843  38.8610  39.2438
    39.5024  39.6678  40.1401  40.2114  40.2987  41.0222  41.0423  41.4168
    41.8073  42.1259  42.2201  42.3156  42.3336

          k = 0.5001 0.0000 0.2366 (  9279 PWs)   bands (ev):

   -30.7979 -17.0658 -17.0254 -17.0166 -16.3643 -16.3611 -16.2230 -14.3253
   -14.3218 -12.2420 -11.9426 -11.9383  -1.6341  -1.4448  -1.3358  -1.1722
    -0.9381  -0.8766   0.6528   0.8500   0.9213   1.4288   1.4696   1.5292
     1.7301   1.7600   1.8194   2.1311   2.2580   2.3598   2.5820   2.5880
     2.6912   2.7420   2.8048   2.8418   4.2481   4.2561   4.2906   4.2908
     4.3791   4.4626   4.4687  10.8425  10.8975  11.1133  11.4965  11.8302
    12.0715  12.1355  12.1754  12.4859  12.9221  13.1824  13.8725  14.2910
    14.9531  15.0623  15.1940  15.6677  16.0317  18.0755  18.2584  18.5270
    18.9004  19.5372  19.5832  19.7838  19.8261  20.4575  20.4759  20.7791
    20.8386  21.3681  21.3885  21.6681  21.9114  22.6144  22.6454  22.9204
    23.1707  23.9117  23.9393  24.1708  24.2069  24.7908  25.2042  25.6576
    26.1101  26.1981  26.4423  26.7703  26.9847  27.3773  27.8144  28.0547
    28.0626  28.6509  28.7488  29.2699  29.6985  29.9939  30.3901  30.4726
    30.6658  31.2725  31.4376  31.6487  31.7977  32.0268  32.2240  32.5921
    32.8046  33.0319  33.4755  33.6842  33.8555  34.1730  34.4268  34.6383
    34.8318  35.2556  35.4599  35.9825  36.6649  36.8128  37.1353  37.2112
    37.4633  37.4837  37.7881  38.0693  38.1502  38.4219  38.7278  39.1412
    39.2089  39.6687  39.6974  40.2052  40.4217  40.5975  40.7305  41.4748
    41.7205  41.8794  42.0047  42.0931  42.1893

          k = 0.5001 0.0000 0.4731 (  9284 PWs)   bands (ev):

   -30.7816 -17.2351 -16.9450 -16.9371 -16.3941 -16.3884 -16.2291 -14.2884
   -14.2786 -12.0738 -12.0351 -12.0311  -1.6009  -1.4716  -1.4627  -1.3388
    -1.2341  -1.0722   0.7910   0.8278   0.9108   1.3127   1.4812   1.5181
     1.7952   1.8168   1.8867   2.1580   2.2262   2.3847   2.5096   2.5686
     2.6740   2.7294   2.8584   2.9079   4.2343   4.2458   4.2679   4.2716
     4.4186   4.4293   4.4324  10.8475  10.9277  11.1595  11.9334  12.0190
    12.1865  12.5624  12.7354  12.9562  13.0804  13.1721  13.6744  13.8980
    14.2993  14.8023  15.3959  16.1281  16.1879  18.0917  18.5355  18.6064
    18.9714  19.7085  19.9196  20.1966  20.4087  20.6901  20.8320  21.0808
    21.1807  21.3852  21.3931  21.8127  21.8581  22.3744  22.4860  23.1104
    23.1210  23.8421  23.9465  24.3347  24.4212  24.6648  25.0071  25.1183
    25.4923  25.8264  25.8756  26.0158  26.5822  26.8478  27.4363  27.6462
    28.2592  28.5358  28.8701  29.1119  29.2711  30.1189  30.2766  30.7326
    30.8935  31.4167  31.5495  31.5827  31.7416  32.0772  32.2032  32.4753
    32.6532  32.7421  33.2854  33.3142  33.7776  34.4102  34.5274  34.6022
    34.9498  35.1205  35.7354  36.1527  36.5298  36.6991  36.9043  37.1289
    37.4958  37.6800  38.0277  38.2081  38.3220  38.5863  38.9344  39.0505
    39.2995  39.5214  39.7457  39.9276  40.2237  40.3590  40.4249  40.5768
    40.7668  41.4452  41.6830  41.8113  42.0502

          k = 0.5001 0.0000 0.7097 (  9289 PWs)   bands (ev):

   -30.7652 -17.3998 -16.8436 -16.8411 -16.4421 -16.4314 -16.2299 -14.2496
   -14.2340 -12.1282 -12.1248 -11.9181  -1.8731  -1.8691  -1.5593  -1.3541
    -1.1972  -0.9718   0.8490   0.8887   0.9561   1.3184   1.3328   1.3572
     1.8791   1.9552   1.9597   2.1795   2.2455   2.3233   2.5093   2.5860
     2.6076   2.6515   2.9463   2.9469   4.2306   4.2351   4.2531   4.2576
     4.3848   4.3880   4.4436  10.8458  11.0210  11.2084  11.7323  11.8292
    12.2256  12.3254  12.6389  13.1046  13.3980  13.4145  13.7286  15.0426
    15.1713  15.4909  15.7538  16.4221  16.6483  17.8840  17.9338  18.2896
    19.0775  19.4876  19.7792  20.0070  20.4074  20.7954  21.0612  21.2830
    21.3655  21.3734  21.5328  22.1395  22.4229  22.6123  23.0355  23.0562
    23.5116  23.5118  23.6685  23.8814  24.0629  24.0807  24.7191  24.8715
    25.1942  25.2824  25.5732  25.7534  26.0733  26.6853  27.4678  27.5421
    28.4077  28.8064  28.9711  29.1339  29.4895  29.8224  30.3198  30.3853
    30.8769  30.9502  31.0533  31.3538  31.6889  31.9168  32.2556  32.5463
    32.7455  32.9242  33.3826  33.9032  33.9874  34.3003  34.5009  35.0146
    35.0405  35.6186  35.6869  35.9207  36.2067  36.2722  36.7054  37.2339
    37.3546  37.7321  37.9843  38.1685  38.2713  38.4230  38.5528  38.6836
    39.2166  39.2232  39.7833  39.7837  39.9739  40.1274  40.3549  40.7247
    40.8031  40.9745  41.1378  41.1463  41.5043

          k = 0.5001 0.0000-0.9462 (  9280 PWs)   bands (ev):

   -30.7584 -17.4660 -16.7919 -16.7901 -16.4732 -16.4583 -16.2293 -14.2329
   -14.2150 -12.1671 -12.1640 -11.8568  -2.0379  -2.0322  -1.5495  -1.3454
    -1.1730  -0.9242   0.8677   0.9564   1.0201   1.1593   1.1933   1.4760
     1.8523   2.0496   2.1047   2.1662   2.1745   2.2148   2.5597   2.5715
     2.5802   2.6740   2.9367   2.9793   4.2304   4.2309   4.2503   4.2540
     4.3617   4.3680   4.4506  10.7349  11.3380  11.3696  11.3991  11.6747
    12.0875  12.1411  12.8154  13.1017  13.4910  13.4986  13.5178  15.4126
    15.7520  15.7747  16.4190  17.0392  17.1623  17.4195  18.4684  18.9442
    19.0470  19.4359  19.4512  19.6961  19.9135  20.2416  20.3894  20.9005
    20.9422  21.3601  21.3741  21.5928  21.9471  22.7279  22.7780  23.1004
    23.5305  23.6337  24.3902  24.4644  24.5487  24.8639  25.0081  25.0745
    25.1454  25.3192  25.7063  25.8657  25.9319  26.8088  27.0639  27.0663
    27.8649  28.7656  28.9523  29.1345  29.2070  29.2945  29.8825  30.0874
    30.5006  30.7918  30.8060  31.2094  31.8214  32.2700  32.5281  32.7038
    32.9144  33.1826  33.8462  33.9989  34.5287  34.6608  34.9691  35.0328
    35.1522  35.4698  35.5323  35.9234  36.2038  36.5389  36.6012  36.6980
    37.1531  37.4618  37.6690  37.8266  38.1107  38.1692  38.2132  38.3550
    38.8814  39.5739  39.6817  39.8878  39.9573  40.1775  40.5484  40.5737
    40.7070  40.7952  41.1863  41.2086  41.2628

          k =-0.2500-0.4330 0.0000 (  9265 PWs)   bands (ev):

   -30.8047 -17.0627 -17.0444 -16.9888 -16.3602 -16.3485 -16.2169 -14.3401
   -14.3393 -12.3160 -11.9041 -11.9005  -1.6525  -1.4613  -1.3490  -1.2024
    -0.7199  -0.6355   0.5693   0.9301   0.9556   1.3180   1.3951   1.6586
     1.7147   1.7266   1.7651   2.1292   2.3719   2.3925   2.5327   2.5656
     2.6419   2.7194   2.7798   2.8803   4.2603   4.2608   4.3004   4.3017
     4.3535   4.4738   4.4812  10.7228  10.8543  11.0587  11.2355  11.3425
    11.9724  12.1683  12.1743  12.3099  12.8599  13.2770  14.2094  14.9099
    15.0219  15.1636  15.4974  15.7906  15.8039  17.6734  17.7086  18.0569
    18.6873  18.9980  19.3541  19.3834  19.8875  20.5286  20.7861  20.9070
    21.3087  21.3476  21.3757  21.8065  21.8715  22.8344  22.8746  22.9319
    23.1416  23.7111  23.8223  23.8646  24.3028  24.6581  25.1934  25.9009
    25.9057  26.0583  26.2427  26.3981  27.1265  27.9011  28.1699  28.3586
    28.6010  28.7927  28.9670  29.1194  29.9482  30.1471  30.3804  30.8974
    31.0693  31.2037  31.3941  31.7081  31.9018  32.1449  32.4071  32.5609
    32.8941  32.9173  33.4214  33.8039  33.8834  34.0961  34.3327  34.5547
    34.6892  34.7199  35.3014  35.9905  36.5937  36.7725  36.9136  36.9604
    37.1226  37.6415  37.6499  37.8057  37.9982  38.1818  38.8625  39.2453
    39.5019  39.6686  40.1402  40.2119  40.2980  41.0187  41.0491  41.4160
    41.8074  42.1318  42.2247  42.3142  42.3313

          k =-0.2500-0.4330 0.2366 (  9276 PWs)   bands (ev):

   -30.7979 -17.0658 -17.0282 -17.0136 -16.3689 -16.3574 -16.2222 -14.3253
   -14.3218 -12.2420 -11.9421 -11.9389  -1.6343  -1.4445  -1.3358  -1.1724
    -0.9381  -0.8766   0.6527   0.8531   0.9177   1.4284   1.4732   1.5270
     1.7287   1.7608   1.8189   2.1324   2.2579   2.3612   2.5796   2.5858
     2.6966   2.7399   2.8050   2.8413   4.2481   4.2561   4.2901   4.2913
     4.3791   4.4622   4.4691  10.8432  10.9013  11.1078  11.4974  11.8299
    12.0723  12.1374  12.1719  12.4869  12.9218  13.1827  13.8731  14.2921
    14.9518  15.0626  15.1953  15.6672  16.0307  18.0743  18.2597  18.5262
    18.9010  19.5357  19.5843  19.7827  19.8254  20.4579  20.4762  20.7803
    20.8392  21.3681  21.3885  21.6680  21.9099  22.6153  22.6442  22.9215
    23.1713  23.9109  23.9385  24.1718  24.2066  24.7895  25.2059  25.6549
    26.1128  26.1999  26.4409  26.7717  26.9861  27.3761  27.8136  28.0563
    28.0615  28.6505  28.7509  29.2688  29.6974  29.9939  30.3902  30.4703
    30.6641  31.2740  31.4400  31.6466  31.7984  32.0317  32.2239  32.5933
    32.8032  33.0314  33.4719  33.6827  33.8568  34.1731  34.4265  34.6371
    34.8312  35.2557  35.4604  35.9824  36.6659  36.8142  37.1361  37.2121
    37.4631  37.4789  37.7890  38.0690  38.1449  38.4227  38.7315  39.1400
    39.2098  39.6688  39.6977  40.2062  40.4214  40.5987  40.7310  41.4712
    41.7202  41.8839  42.0066  42.0943  42.1925

          k =-0.2500-0.4330 0.4731 (  9283 PWs)   bands (ev):

   -30.7816 -17.2351 -16.9479 -16.9340 -16.3971 -16.3861 -16.2286 -14.2883
   -14.2787 -12.0738 -12.0342 -12.0320  -1.6010  -1.4715  -1.4626  -1.3388
    -1.2341  -1.0722   0.7914   0.8259   0.9118   1.3133   1.4816   1.5183
     1.7940   1.8164   1.8880   2.1581   2.2258   2.3853   2.5059   2.5700
     2.6765   2.7308   2.8531   2.9106   4.2343   4.2458   4.2674   4.2721
     4.4187   4.4288   4.4328  10.8482  10.9323  11.1540  11.9336  12.0176
    12.1863  12.5642  12.7353  12.9555  13.0816  13.1714  13.6747  13.8985
    14.2990  14.8012  15.3984  16.1277  16.1866  18.0900  18.5364  18.6075
    18.9709  19.7085  19.9196  20.1955  20.4081  20.6924  20.8319  21.0803
    21.1809  21.3852  21.3931  21.8117  21.8586  22.3741  22.4851  23.1120
    23.1204  23.8400  23.9472  24.3332  24.4233  24.6647  25.0089  25.1189
    25.4924  25.8260  25.8757  26.0157  26.5823  26.8484  27.4355  27.6452
    28.2607  28.5346  28.8734  29.1134  29.2681  30.1197  30.2750  30.7320
    30.8933  31.4190  31.5501  31.5813  31.7431  32.0756  32.2045  32.4730
    32.6520  32.7431  33.2861  33.3112  33.7797  34.4112  34.5302  34.6014
    34.9480  35.1209  35.7325  36.1495  36.5315  36.7014  36.9045  37.1286
    37.4957  37.6801  38.0296  38.2071  38.3196  38.5842  38.9353  39.0529
    39.2997  39.5234  39.7457  39.9263  40.2196  40.3596  40.4280  40.5739
    40.7671  41.4460  41.6828  41.8100  42.0496

          k =-0.2500-0.4330 0.7097 (  9289 PWs)   bands (ev):

   -30.7652 -17.3998 -16.8478 -16.8368 -16.4422 -16.4315 -16.2298 -14.2496
   -14.2340 -12.1274 -12.1256 -11.9181  -1.8731  -1.8691  -1.5592  -1.3544
    -1.1972  -0.9717   0.8474   0.8874   0.9589   1.3188   1.3303   1.3606
     1.8773   1.9561   1.9591   2.1799   2.2465   2.3231   2.5040   2.5865
     2.6096   2.6548   2.9411   2.9508   4.2306   4.2351   4.2527   4.2581
     4.3853   4.3875   4.4436  10.8496  11.0220  11.2046  11.7321  11.8258
    12.2270  12.3262  12.6400  13.1037  13.3970  13.4164  13.7286  15.0421
    15.1702  15.4919  15.7551  16.4212  16.6483  17.8840  17.9329  18.2906
    19.0784  19.4877  19.7784  20.0056  20.4070  20.7958  21.0605  21.2845
    21.3654  21.3734  21.5327  22.1391  22.4233  22.6103  23.0346  23.0571
    23.5100  23.5145  23.6691  23.8813  24.0612  24.0820  24.7212  24.8727
    25.1947  25.2838  25.5750  25.7518  26.0693  26.6861  27.4664  27.5405
    28.4111  28.8028  28.9712  29.1344  29.4909  29.8228  30.3222  30.3838
    30.8779  30.9508  31.0535  31.3539  31.6907  31.9159  32.2553  32.5417
    32.7454  32.9249  33.3822  33.9032  33.9899  34.3002  34.5011  35.0124
    35.0407  35.6187  35.6885  35.9189  36.2077  36.2763  36.7070  37.2349
    37.3523  37.7272  37.9833  38.1705  38.2721  38.4183  38.5513  38.6822
    39.2183  39.2248  39.7810  39.7849  39.9737  40.1286  40.3557  40.7229
    40.8027  40.9748  41.1390  41.1462  41.5025

          k =-0.2500-0.4330-0.9462 (  9282 PWs)   bands (ev):

   -30.7584 -17.4660 -16.7959 -16.7861 -16.4714 -16.4602 -16.2292 -14.2330
   -14.2150 -12.1665 -12.1645 -11.8568  -2.0379  -2.0322  -1.5493  -1.3458
    -1.1729  -0.9241   0.8673   0.9522   1.0244   1.1619   1.1915   1.4766
     1.8520   2.0461   2.1015   2.1697   2.1769   2.2157   2.5582   2.5739
     2.5740   2.6787   2.9404   2.9750   4.2304   4.2309   4.2498   4.2545
     4.3622   4.3675   4.4505  10.7374  11.3399  11.3687  11.3998  11.6671
    12.0894  12.1423  12.8155  13.1019  13.4922  13.4978  13.5178  15.4114
    15.7511  15.7768  16.4179  17.0402  17.1620  17.4199  18.4683  18.9448
    19.0470  19.4350  19.4512  19.6968  19.9125  20.2414  20.3894  20.8995
    20.9412  21.3602  21.3743  21.5942  21.9479  22.7246  22.7761  23.1025
    23.5338  23.6325  24.3921  24.4651  24.5484  24.8664  25.0079  25.0749
    25.1474  25.3191  25.7081  25.8612  25.9295  26.8094  27.0638  27.0642
    27.8646  28.7612  28.9549  29.1349  29.2069  29.2947  29.8842  30.0891
    30.4996  30.7950  30.8052  31.2089  31.8219  32.2713  32.5364  32.6947
    32.9117  33.1837  33.8461  33.9984  34.5258  34.6599  34.9729  35.0314
    35.1548  35.4725  35.5319  35.9222  36.2059  36.5385  36.6020  36.6999
    37.1506  37.4610  37.6685  37.8294  38.1078  38.1680  38.2082  38.3568
    38.8800  39.5743  39.6845  39.8902  39.9562  40.1771  40.5480  40.5716
    40.7026  40.7955  41.1867  41.2094  41.2605

          k = 0.0000-0.2887 0.0000 (  9257 PWs)   bands (ev):

   -30.8047 -17.0575 -17.0335 -16.9993 -16.3584 -16.3441 -16.2337 -14.3421
   -14.3302 -12.3160 -11.9054 -11.9020  -1.6497  -1.5842  -1.2363  -1.1559
    -0.7622  -0.5831   0.4680   0.9180   0.9383   1.3296   1.3943   1.6572
     1.6950   1.7163   1.8581   2.0341   2.4783   2.4795   2.5100   2.5433
     2.6117   2.7137   2.8508   2.8556   4.2515   4.2626   4.2976   4.2986
     4.3567   4.4850   4.4925  10.2969  10.7982  10.9272  11.2987  11.4886
    11.7529  12.1792  12.1824  12.7505  12.8376  13.3104  13.9364  14.8493
    14.9421  15.7605  15.9000  16.0564  16.1981  16.9330  17.6049  17.8298
    18.5153  18.7633  19.0429  19.1682  20.1972  20.3317  21.0554  21.2387
    21.3653  21.3846  21.4302  22.1577  22.4225  22.5443  22.7860  22.9806
    23.0529  23.6685  23.7334  23.8185  24.5103  24.5924  24.8314  25.6364
    26.0006  26.4762  26.5712  26.7423  27.1651  27.6573  27.8295  27.9868
    28.2048  28.4355  28.4386  28.9598  29.8605  30.1708  30.4641  30.5987
    31.1992  31.2819  31.6163  31.7743  31.9506  32.1895  32.3980  32.5710
    32.8352  33.1605  33.4103  34.0244  34.3019  34.3472  34.6709  34.9612
    35.1938  35.3256  35.5588  36.1633  36.2325  36.3319  36.7752  36.9878
    37.0473  37.4226  37.5785  37.9265  38.0516  38.0855  38.7090  38.8524
    38.9978  39.8980  39.9141  40.3705  40.5681  40.7006  41.0268  41.1014
    41.3255  41.4359  41.7596  42.2925  42.3021

          k = 0.0000-0.2887 0.2366 (  9245 PWs)   bands (ev):

   -30.7979 -17.0800 -17.0177 -17.0030 -16.3676 -16.3536 -16.2382 -14.3230
   -14.3187 -12.2413 -11.9432 -11.9404  -1.6356  -1.5674  -1.2172  -1.1462
    -0.9696  -0.8420   0.5584   0.8673   0.9267   1.4291   1.4733   1.5394
     1.7221   1.8182   1.8604   2.0437   2.3591   2.4380   2.5085   2.5363
     2.6656   2.7329   2.8390   2.8535   4.2485   4.2499   4.2872   4.2886
     4.3822   4.4731   4.4799  10.6222  10.7828  10.9009  11.4676  11.9829
    12.0293  12.1681  12.1907  12.7865  12.9313  13.2975  13.6557  14.4033
    14.5808  15.1189  15.1925  16.5188  16.8941  17.0453  17.8457  18.1305
    19.0766  19.2471  19.4787  19.6235  20.0049  20.5289  20.7346  20.8262
    21.3711  21.3847  21.4457  22.0271  22.1519  22.3421  22.4589  23.0008
    23.2546  23.7125  23.8507  24.1118  24.6110  24.7774  24.8666  25.5981
    25.6671  26.0951  26.6268  27.0015  27.2113  27.3129  28.0108  28.1064
    28.1871  28.2226  28.3870  28.5987  29.1496  29.8387  30.1226  30.8532
    31.0957  31.3030  31.5499  31.7369  32.0081  32.2220  32.4830  32.7044
    32.7698  33.1509  33.5903  33.7075  34.0083  34.3251  34.4042  34.7645
    35.0621  35.2952  35.7763  35.8964  36.2409  36.4995  36.9174  37.1295
    37.4210  37.6007  37.7138  38.1036  38.2560  38.3592  38.6017  38.9839
    39.2289  39.5293  39.9130  40.0397  40.4151  40.6318  40.9535  41.2420
    41.4048  41.5531  41.7141  41.8678  42.2776

          k = 0.0000-0.2887 0.4731 (  9278 PWs)   bands (ev):

   -30.7816 -17.2440 -16.9404 -16.9249 -16.3961 -16.3833 -16.2413 -14.2917
   -14.2743 -12.0717 -12.0348 -12.0336  -1.6182  -1.5383  -1.4389  -1.3917
    -1.1517  -1.0729   0.7634   0.8625   0.9539   1.3256   1.5396   1.6170
     1.7782   1.8010   1.9448   2.0831   2.2756   2.4172   2.4290   2.4700
     2.6308   2.7538   2.8397   2.8996   4.2304   4.2459   4.2664   4.2707
     4.4224   4.4373   4.4408  10.7508  10.8800  11.0755  11.8650  12.0055
    12.2418  12.6781  12.8585  12.9788  13.1362  13.2615  13.5952  14.0213
    14.0665  14.5781  14.9425  16.8333  17.2347  17.5314  18.0447  18.2487
    18.9624  19.4927  19.8809  20.5261  20.6574  20.7750  21.1018  21.2720
    21.3411  21.3842  21.4292  21.8535  21.9905  22.1233  22.5233  22.9163
    23.1364  23.5767  23.8998  24.2480  24.4778  24.6900  25.0504  25.2004
    25.3063  25.5394  26.0339  26.0395  26.4477  26.7133  27.4007  27.8935
    28.0653  28.4401  28.5405  29.0005  29.4032  29.9604  30.1262  31.1014
    31.3184  31.3869  31.8121  31.9663  32.0432  32.1861  32.3171  32.5841
    32.7803  32.8939  33.2842  33.3686  33.7816  34.0589  34.1969  34.4608
    34.7175  35.1408  35.2314  35.8118  36.1964  36.6838  36.8232  37.0278
    37.1159  37.6980  37.9100  38.0463  38.5147  38.7650  38.9566  39.1853
    39.3435  39.4689  39.6401  39.8539  40.0554  40.5367  40.6176  40.6745
    41.1755  41.3173  41.4550  41.5323  41.9867

          k = 0.0000-0.2887 0.7097 (  9278 PWs)   bands (ev):

   -30.7652 -17.4061 -16.8427 -16.8300 -16.4402 -16.4295 -16.2374 -14.2623
   -14.2251 -12.1277 -12.1270 -11.9146  -1.8658  -1.8608  -1.5871  -1.5085
    -1.0745  -1.0031   0.8922   0.9773   1.0423   1.3329   1.3845   1.4585
     1.8625   1.9264   1.9847   2.1457   2.2441   2.2863   2.4292   2.5143
     2.5420   2.6798   2.9090   2.9232   4.2212   4.2419   4.2539   4.2585
     4.3898   4.3914   4.4493  10.8589  10.9997  11.1911  11.6454  11.6970
    12.3251  12.5572  12.8123  13.2452  13.2751  13.5323  13.5514  14.5564
    14.7829  15.2176  15.7512  17.0897  17.5060  17.5896  18.0418  18.4872
    18.7559  19.4391  19.5493  20.1533  20.4175  20.9987  21.0918  21.3472
    21.3789  21.5273  21.8493  22.0101  22.2870  22.3985  22.5551  22.7487
    23.5606  23.6642  23.8695  23.9334  23.9994  24.3187  24.4006  24.6852
    24.9750  25.3320  25.5635  25.7907  26.2823  26.9835  27.6729  27.7458
    28.0331  28.4473  28.5476  29.3117  29.4627  29.7719  30.2515  30.6394
    30.7795  31.1200  31.3264  31.6287  31.9635  32.0351  32.4250  32.5677
    32.8881  33.0882  33.4898  33.7484  34.0486  34.1527  34.3764  34.8229
    34.9631  35.2114  35.2886  35.8104  36.1230  36.4020  36.6079  36.7318
    37.0982  37.1877  37.8079  37.9105  38.1682  38.2131  38.7056  38.8421
    39.0493  39.2906  39.4856  39.8317  39.8701  40.2274  40.4733  40.7126
    40.8963  41.1139  41.2324  41.5218  41.5974

          k = 0.0000-0.2887-0.9462 (  9288 PWs)   bands (ev):

   -30.7584 -17.4715 -16.7922 -16.7810 -16.4679 -16.4584 -16.2345 -14.2497
   -14.2042 -12.1669 -12.1653 -11.8528  -2.0409  -2.0166  -1.5880  -1.5041
    -1.0375  -0.9646   0.9059   1.1459   1.1624   1.1630   1.2950   1.4199
     1.9050   1.9829   2.0347   2.1080   2.1514   2.3406   2.4643   2.4747
     2.5048   2.6700   2.9163   2.9390   4.2193   4.2401   4.2515   4.2555
     4.3649   4.3694   4.4575  10.9197  11.1224  11.3448  11.4037  11.4446
    12.1750  12.4699  13.1659  13.2251  13.2540  13.4299  13.4681  14.9625
    15.0438  15.3652  16.9726  17.5193  17.6310  18.0546  18.5443  18.8171
    18.8796  19.2815  19.3681  19.5965  19.9376  20.2756  20.6041  20.9156
    21.2023  21.3159  21.4250  21.5245  22.0995  22.1945  22.4295  22.4374
    23.7475  23.9111  24.0110  24.4200  24.7087  24.8291  24.9261  25.1360
    25.1953  25.3319  25.8396  26.0229  26.1823  26.8898  27.3438  27.5517
    27.8867  28.0137  28.2935  28.8707  29.0800  29.8732  30.0303  30.0971
    30.4746  30.8762  31.1174  31.3482  31.6357  32.3211  32.3653  32.9026
    33.0254  33.5555  33.9235  34.1130  34.2795  34.4773  34.9196  35.0640
    35.2996  35.4483  35.6051  35.6900  36.1160  36.2522  36.2802  36.6328
    36.7383  37.0736  37.2225  37.8029  38.2083  38.3488  38.4286  38.6455
    38.8909  38.9092  39.3158  39.4391  39.7340  39.9579  40.3166  40.4161
    40.6455  40.9259  41.1883  41.2788  41.3783

          k =-1.0001 0.0000 0.0000 (  9246 PWs)   bands (ev):

   -30.8047 -17.0694 -17.0359 -16.9901 -16.3655 -16.3447 -16.2158 -14.3448
   -14.3345 -12.3160 -11.9060 -11.8987  -1.6294  -1.4711  -1.3608  -1.2112
    -0.7237  -0.6310   0.5759   0.9149   0.9696   1.2867   1.4413   1.6600
     1.6882   1.7698   1.7768   2.0978   2.3591   2.3959   2.5093   2.5944
     2.6157   2.7391   2.7737   2.8826   4.2600   4.2609   4.3000   4.3022
     4.3536   4.4688   4.4865  10.7232  10.9066  11.0333  11.1617  11.3835
    12.1710  12.1713  12.2260  12.2637  12.6797  12.9760  14.7837  14.8987
    15.0052  15.2286  15.4130  15.5707  15.8352  17.2275  18.0328  18.2669
    18.5674  18.9034  19.0345  19.6078  19.8270  20.5652  20.8566  21.3375
    21.3717  21.3736  21.3966  21.7070  21.7508  22.5621  22.9852  23.0249
    23.1495  23.5163  23.7939  23.9305  24.4034  24.5870  24.7837  26.0248
    26.2007  26.2869  26.4430  26.4888  27.3540  27.5472  27.8956  28.4149
    28.5264  28.5393  28.6472  28.6574  29.9780  30.4802  30.5996  30.6909
    31.1706  31.4964  31.6565  31.7351  31.8690  32.1097  32.1538  32.8543
    32.8560  33.2990  33.3466  33.7868  33.8865  34.1101  34.6137  34.7228
    34.8986  35.2245  35.3417  35.7952  35.8656  35.9792  36.4345  36.8495
    37.0200  37.4658  37.5415  37.7580  38.1055  38.5511  39.1808  39.2183
    39.5356  40.0883  40.3119  40.3831  40.4327  40.4575  40.7180  40.7366
    41.5266  42.3211  42.3252  42.4554  42.7476

          k =-1.0001 0.0000 0.2366 (  9270 PWs)   bands (ev):

   -30.7979 -17.0637 -17.0381 -17.0053 -16.3739 -16.3539 -16.2212 -14.3291
   -14.3180 -12.2420 -11.9437 -11.9373  -1.6109  -1.4598  -1.3245  -1.2080
    -0.9293  -0.8764   0.6614   0.8194   0.9552   1.3966   1.5031   1.5488
     1.7495   1.7721   1.8215   2.0286   2.2981   2.4090   2.5211   2.5705
     2.6942   2.7674   2.8034   2.8453   4.2481   4.2555   4.2907   4.2912
     4.3791   4.4579   4.4736  10.7304  11.0878  11.1190  11.4293  11.7550
    12.1121  12.1708  12.3484  12.4906  12.7751  13.0486  13.6551  14.6997
    14.8510  15.0201  15.3076  15.8608  15.9737  17.3980  18.6037  18.6264
    19.0978  19.1392  19.6424  19.7076  19.9033  20.2635  20.5881  20.6251
    21.3594  21.3695  21.4002  21.8000  22.0799  22.5588  22.6048  22.8162
    23.1942  23.5483  23.8745  24.0482  24.6352  24.7682  24.8234  26.0259
    26.1014  26.2028  26.4920  26.6853  27.2501  27.2562  27.6492  28.0060
    28.1597  28.4479  28.6096  29.2968  29.6619  29.8903  30.0676  30.4956
    30.9175  31.1603  31.4510  31.9898  32.1451  32.3030  32.3381  32.3506
    32.8700  33.1688  33.3493  33.7060  34.0498  34.3074  34.3722  34.8118
    34.9780  35.0548  35.3831  35.8403  35.9592  36.6293  36.7661  36.8548
    37.4580  37.5782  37.8651  37.9272  38.2185  38.6989  38.7302  39.4269
    39.5384  39.5545  39.9417  40.1843  40.4364  40.5044  40.9620  41.1848
    41.2344  41.8022  41.9095  42.1321  42.2613

          k =-1.0001 0.0000 0.4731 (  9284 PWs)   bands (ev):

   -30.7816 -17.2350 -16.9545 -16.9271 -16.4004 -16.3837 -16.2281 -14.2899
   -14.2771 -12.0738 -12.0350 -12.0312  -1.5882  -1.4727  -1.4400  -1.3676
    -1.2298  -1.0922   0.7236   0.8759   0.9679   1.3069   1.4722   1.5676
     1.7937   1.8121   1.8829   2.0126   2.2992   2.4579   2.4707   2.5314
     2.6876   2.7372   2.8433   2.9225   4.2346   4.2448   4.2671   4.2735
     4.4176   4.4279   4.4346  10.7291  11.0728  11.1847  11.9430  11.9613
    12.2614  12.5683  12.6484  12.9912  13.0344  13.2218  13.5153  14.1057
    14.2038  14.7039  15.4147  15.9362  16.8863  17.5953  18.2241  18.9170
    19.1587  19.3643  19.6610  20.0741  20.7118  20.7811  20.9857  21.2041
    21.3794  21.3814  21.5316  21.8904  22.1798  22.1933  22.4499  22.8501
    22.8617  23.4731  23.8306  24.2131  24.5281  24.8590  25.0909  25.3613
    25.5472  25.9520  25.9942  26.0272  26.1397  26.9506  27.4687  27.8002
    28.1122  28.3449  28.7075  28.8923  29.5059  30.0919  30.3073  30.7903
    31.0766  31.3974  31.6463  31.9181  31.9995  32.0402  32.1910  32.3786
    32.6089  32.7364  32.9017  33.5484  33.8405  33.9748  34.4329  34.6027
    35.0576  35.1750  35.4472  36.3239  36.5068  36.8801  37.0047  37.1461
    37.3476  37.3884  37.7054  38.0198  38.6649  38.8981  38.9665  39.0042
    39.3118  39.4184  39.6908  39.8703  40.4700  40.4889  40.6236  40.7544
    41.0748  41.0977  41.4963  41.8747  41.8934

          k =-1.0001 0.0000 0.7097 (  9294 PWs)   bands (ev):

   -30.7652 -17.3998 -16.8523 -16.8320 -16.4425 -16.4316 -16.2296 -14.2487
   -14.2348 -12.1269 -12.1262 -11.9181  -1.8768  -1.8655  -1.5439  -1.3705
    -1.1540  -1.0272   0.7690   0.9243   1.0462   1.3006   1.3764   1.3775
     1.8674   1.8752   1.9660   2.1680   2.2386   2.3158   2.4625   2.6266
     2.6290   2.6723   2.9296   2.9586   4.2314   4.2346   4.2500   4.2608
     4.3846   4.3874   4.4442  10.7635  11.1771  11.2306  11.6725  11.8588
    11.9073  12.6461  12.6562  13.2169  13.2964  13.4560  13.6265  15.0286
    15.0479  15.5842  15.6741  16.0624  17.3722  17.7652  17.9162  18.4288
    18.7214  19.2612  19.7161  20.3777  20.6503  20.7068  21.2991  21.3197
    21.3784  21.3947  21.8331  21.9178  22.0198  22.5143  22.6519  23.1042
    23.2963  23.3263  23.7343  23.8509  24.1000  24.1551  24.6037  25.1404
    25.2141  25.6852  25.8425  25.9086  25.9257  26.8658  27.3679  27.9056
    28.0871  28.4935  28.7157  29.2183  29.5704  29.5989  30.2069  30.5025
    30.7855  30.8640  31.0852  31.3729  31.6269  32.1913  32.2888  32.6217
    32.8441  32.9290  33.4020  33.7489  33.8757  34.3638  34.3902  34.9692
    35.2520  35.5816  35.6822  35.8338  35.8951  36.6855  36.9950  37.1344
    37.2625  37.9863  38.0815  38.0862  38.2626  38.6522  38.7473  38.9392
    38.9806  39.2077  39.3633  39.6757  39.7937  39.9723  40.3022  40.4008
    40.5881  41.0916  41.2890  41.4432  41.4506

          k =-1.0001 0.0000-0.9462 (  9312 PWs)   bands (ev):

   -30.7584 -17.4660 -16.7990 -16.7830 -16.4693 -16.4623 -16.2292 -14.2310
   -14.2169 -12.1659 -12.1651 -11.8567  -2.0364  -2.0337  -1.5422  -1.3504
    -1.1289  -0.9855   0.8600   0.8751   1.1672   1.1769   1.1974   1.5003
     1.8474   1.9342   2.1218   2.1336   2.1549   2.2471   2.5285   2.5611
     2.6139   2.7093   2.9473   2.9733   4.2302   4.2321   4.2459   4.2575
     4.3602   4.3688   4.4512  10.7355  11.3308  11.4419  11.4586  11.6503
    11.6831  12.5408  12.8321  13.2427  13.3665  13.4153  13.5178  15.3940
    15.6413  15.7142  16.1807  17.0320  17.3703  17.8740  18.4865  18.6403
    19.0555  19.0750  19.5784  20.0055  20.2348  20.4332  20.5490  20.7190
    20.8775  21.3219  21.3961  21.5021  21.8250  21.9499  22.8462  23.0689
    23.2916  23.5440  24.3115  24.6325  24.7914  24.8886  24.9576  25.1505
    25.2855  25.4494  25.8187  26.1472  26.2759  26.3947  27.3235  27.8499
    28.1586  28.3441  28.4129  28.5661  29.2324  29.5426  29.5795  29.6991
    30.3319  30.4664  30.6779  31.6019  32.2127  32.3353  32.5648  32.7363
    32.9115  33.3278  33.6895  34.4151  34.4610  34.4937  34.8055  34.8683
    35.3428  35.4957  35.7675  35.8708  35.9925  36.6815  36.7829  36.9254
    37.0260  37.4628  37.7869  37.7928  38.0500  38.3332  38.4232  38.5846
    38.9143  39.2276  39.2316  39.6969  39.7675  39.9976  40.1581  40.5314
    40.8520  40.8733  41.2961  41.4500  41.6066

     the Fermi energy is     4.2147 ev

!    total energy              =    -927.31159429 Ry
     estimated scf accuracy    <          3.3E-09 Ry
     smearing contrib. (-TS)   =      -0.00377710 Ry
     internal energy E=F+TS    =    -927.30781719 Ry

     The total energy is F=E-TS. E is the sum of the following terms:
     one-electron contribution =    -228.41044377 Ry
     hartree contribution      =     158.80307298 Ry
     xc contribution           =    -128.66898797 Ry
     ewald contribution        =    -309.57483527 Ry
     one-center paw contrib.   =    -419.45662317 Ry

     convergence has been achieved in  30 iterations

     Forces acting on atoms (cartesian axes, Ry/au):

     atom    1 type  1   force =     0.00009295   -0.00006752    0.00000000
     atom    2 type  1   force =     0.00009295    0.00006752    0.00000000
     atom    3 type  3   force =    -0.00071876    0.00000000    0.00000000
     atom    4 type  2   force =    -0.01206906    0.02090948    0.00000000
     atom    5 type  2   force =     0.02438599    0.00000000    0.00000000
     atom    6 type  2   force =    -0.01206906   -0.02090948    0.00000000
     atom    7 type  2   force =     0.02006995   -0.03462929   -0.00000000
     atom    8 type  2   force =    -0.03985489    0.00000000    0.00000000
     atom    9 type  2   force =     0.02006995    0.03462929    0.00000000

     Total force =     0.080953     Total SCF correction =     0.000060


     Computing stress (Cartesian axis) and pressure

          total   stress  (Ry/bohr**3)                   (kbar)     P=      -31.29
  -0.00023432   0.00000000  -0.00000000          -34.47        0.00       -0.00
   0.00000000  -0.00023464  -0.00000000            0.00      -34.52       -0.00
  -0.00000000  -0.00000000  -0.00016922           -0.00       -0.00      -24.89


     Writing all to output data dir ./pwscf.save/ :
     XML data file, charge density, pseudopotentials, collected wavefunctions

     init_run     :    109.63s CPU     58.30s WALL (       1 calls)
     electrons    :   7176.82s CPU   3733.45s WALL (       1 calls)
     forces       :     21.90s CPU     11.97s WALL (       1 calls)
     stress       :     46.41s CPU     26.97s WALL (       1 calls)

     Called by init_run:
     wfcinit      :    105.64s CPU     54.37s WALL (       1 calls)
     potinit      :      1.62s CPU      1.44s WALL (       1 calls)
     hinit0       :      0.65s CPU      0.69s WALL (       1 calls)

     Called by electrons:
     c_bands      :   5819.51s CPU   2971.85s WALL (      30 calls)
     sum_band     :   1244.12s CPU    663.45s WALL (      30 calls)
     v_of_rho     :     10.95s CPU      5.77s WALL (      31 calls)
     newd         :     56.29s CPU     48.45s WALL (      31 calls)
     PAW_pot      :     43.71s CPU     43.24s WALL (      31 calls)
     mix_rho      :      2.58s CPU      1.60s WALL (      30 calls)

     Called by c_bands:
     init_us_2    :     16.34s CPU      8.71s WALL (    2205 calls)
     cegterg      :   5756.85s CPU   2935.79s WALL (    1050 calls)

     Called by *egterg:
     cdiaghg      :    270.01s CPU    135.40s WALL (    2789 calls)
     h_psi        :   4761.20s CPU   2433.96s WALL (    2824 calls)
     s_psi        :     90.88s CPU     46.67s WALL (    2824 calls)
     g_psi        :      5.39s CPU      3.40s WALL (    1739 calls)

     Called by h_psi:
     h_psi:calbec :    152.82s CPU     78.18s WALL (    2824 calls)
     vloc_psi     :   4505.82s CPU   2304.47s WALL (    2824 calls)
                                        0.00s GPU  (    2824 calls)
     add_vuspsi   :     63.38s CPU     31.61s WALL (    2824 calls)

     General routines
     calbec       :    255.94s CPU    130.87s WALL (    4469 calls)
     fft          :     10.58s CPU      5.95s WALL (     426 calls)
     ffts         :      2.11s CPU      1.20s WALL (      61 calls)
     fftw         :   5317.40s CPU   2715.75s WALL (  829106 calls)
     interpolate  :      1.71s CPU      1.10s WALL (      31 calls)

     Parallel routines

     PWSCF        :      2h 2m CPU      1h 4m WALL


   This run was terminated on:  16:17:49  16Apr2026            

=------------------------------------------------------------------------------=
   JOB DONE.
=------------------------------------------------------------------------------=
