
     Program PWSCF v.7.5 starts on 16Apr2026 at 14:44:59 

     This program is part of the open-source Quantum ESPRESSO suite
     for quantum simulation of materials; please cite
         "P. Giannozzi et al., J. Phys.:Condens. Matter 21 395502 (2009);
         "P. Giannozzi et al., J. Phys.:Condens. Matter 29 465901 (2017);
         "P. Giannozzi et al., J. Chem. Phys. 152 154105 (2020);
          URL http://www.quantum-espresso.org", 
     in publications or presentations arising from this work. More details at
     http://www.quantum-espresso.org/quote

     Parallel version (MPI & OpenMP), running on       8 processor cores
     Number of MPI processes:                 4
     Threads/MPI process:                     2

     MPI processes distributed on     1 nodes
     6757 MiB available memory on the printing compute node when the environment starts

     Reading input from nscf.in
Warning: card &IONS ignored
Warning: card &CELL ignored

     Current dimensions of program PWSCF are:
     Max number of different atomic species (ntypx) = 10
     Max number of k-points (npk) =  40000
     Max angular momentum in pseudopotentials (lmaxx) =  4

     Atomic positions and unit cell read from directory:
     ./pwscf.save/

     Message from routine setup:
     using ibrav=0 with symmetry is DISCOURAGED, use correct ibrav instead

     R & G space division:  proc/nbgrp/npool/nimage =       4
     Subspace diagonalization in iterative solution of the eigenvalue problem:
     a serial algorithm will be used


     Parallelization info
     --------------------
     sticks:   dense  smooth     PW     G-vecs:    dense   smooth      PW
     Min         483     241     70                19801     6993    1128
     Max         484     243     71                19804     6994    1131
     Sum        1933     967    281                79209    27973    4519

     Using Slab Decomposition



     bravais-lattice index     =            0
     lattice parameter (alat)  =       5.8195  a.u.
     unit-cell volume          =     445.5756 (a.u.)^3
     number of atoms/cell      =            6
     number of atomic types    =            2
     number of electrons       =        64.00
     number of Kohn-Sham states=           71
     kinetic-energy cutoff     =      60.0000  Ry
     charge density cutoff     =     480.0000  Ry
     Exchange-correlation=  SLA  PW   PBX  PBC
                           (   1   4   3   4   0   0   0)

     celldm(1)=   5.819493  celldm(2)=   0.000000  celldm(3)=   0.000000
     celldm(4)=   0.000000  celldm(5)=   0.000000  celldm(6)=   0.000000

     crystal axes: (cart. coord. in units of alat)
               a(1) = (   1.000000   0.000000   0.000000 )  
               a(2) = (   0.000000   1.488838   0.000000 )  
               a(3) = (   0.000000   0.000000   1.518513 )  

     reciprocal axes: (cart. coord. in units 2 pi/alat)
               b(1) = (  1.000000  0.000000  0.000000 )  
               b(2) = (  0.000000  0.671665  0.000000 )  
               b(3) = (  0.000000  0.000000  0.658539 )  


     PseudoPot. # 1 for F  read from file:
     /mnt/d/DeepESense/pseudo/SSSP_1.3.0_PBE_efficiency/f_pbe_v1.4.uspp.F.UPF
     MD5 check sum: 4c38b6a325caf53ec0e86aed9459de46
     Pseudo is Ultrasoft, Zval =  7.0
     Generated by new atomic code, or converted to UPF format
     Using radial grid of  799 points,  4 beta functions with: 
                l(1) =   0
                l(2) =   0
                l(3) =   1
                l(4) =   1
     Q(r) pseudized with  8 coefficients,  rinner =    0.950   0.950   0.950


     PseudoPot. # 2 for Ni read from file:
     /mnt/d/DeepESense/pseudo/SSSP_1.3.0_PBE_efficiency/ni_pbe_v1.4.uspp.F.UPF
     MD5 check sum: 1ee80287db30b12d2bc1f57a5b5d6409
     Pseudo is Ultrasoft + core correction, Zval = 18.0
     Generated by new atomic code, or converted to UPF format
     Using radial grid of  865 points,  6 beta functions with: 
                l(1) =   0
                l(2) =   0
                l(3) =   1
                l(4) =   1
                l(5) =   2
                l(6) =   2
     Q(r) pseudized with 10 coefficients,  rinner =    0.980   0.980   0.980
                                                       0.980   0.980

     atomic species   valence    mass     pseudopotential
     F                 7.00    18.99840     F ( 1.00)
     Ni               18.00    58.69340     Ni( 1.00)

      8 Sym. Ops., with inversion, found ( 4 have fractional translation)


                                    s                        frac. trans.

      isym =  1     identity                                     

 cryst.   s( 1) = (     1          0          0      )
                  (     0          1          0      )
                  (     0          0          1      )

 cart.    s( 1) = (  1.0000000  0.0000000  0.0000000 )
                  (  0.0000000  1.0000000  0.0000000 )
                  (  0.0000000  0.0000000  1.0000000 )


      isym =  2     180 deg rotation - cart. axis [0,0,1]        

 cryst.   s( 2) = (    -1          0          0      )    f =( -0.5000000 )
                  (     0         -1          0      )       (  0.5000000 )
                  (     0          0          1      )       ( -0.5000000 )

 cart.    s( 2) = ( -1.0000000  0.0000000  0.0000000 )    f =( -0.5000000 )
                  (  0.0000000 -1.0000000  0.0000000 )       (  0.7444191 )
                  (  0.0000000  0.0000000  1.0000000 )       ( -0.7592565 )


      isym =  3     180 deg rotation - cart. axis [0,1,0]        

 cryst.   s( 3) = (    -1          0          0      )    f =( -0.5000000 )
                  (     0          1          0      )       ( -0.5000000 )
                  (     0          0         -1      )       (  0.5000000 )

 cart.    s( 3) = ( -1.0000000  0.0000000  0.0000000 )    f =( -0.5000000 )
                  (  0.0000000  1.0000000  0.0000000 )       ( -0.7444191 )
                  (  0.0000000  0.0000000 -1.0000000 )       (  0.7592565 )


      isym =  4     180 deg rotation - cart. axis [1,0,0]        

 cryst.   s( 4) = (     1          0          0      )
                  (     0         -1          0      )
                  (     0          0         -1      )

 cart.    s( 4) = (  1.0000000  0.0000000  0.0000000 )
                  (  0.0000000 -1.0000000  0.0000000 )
                  (  0.0000000  0.0000000 -1.0000000 )


      isym =  5     inversion                                    

 cryst.   s( 5) = (    -1          0          0      )
                  (     0         -1          0      )
                  (     0          0         -1      )

 cart.    s( 5) = ( -1.0000000  0.0000000  0.0000000 )
                  (  0.0000000 -1.0000000  0.0000000 )
                  (  0.0000000  0.0000000 -1.0000000 )


      isym =  6     inv. 180 deg rotation - cart. axis [0,0,1]   

 cryst.   s( 6) = (     1          0          0      )    f =(  0.5000000 )
                  (     0          1          0      )       ( -0.5000000 )
                  (     0          0         -1      )       (  0.5000000 )

 cart.    s( 6) = (  1.0000000  0.0000000  0.0000000 )    f =(  0.5000000 )
                  (  0.0000000  1.0000000  0.0000000 )       ( -0.7444191 )
                  (  0.0000000  0.0000000 -1.0000000 )       (  0.7592565 )


      isym =  7     inv. 180 deg rotation - cart. axis [0,1,0]   

 cryst.   s( 7) = (     1          0          0      )    f =(  0.5000000 )
                  (     0         -1          0      )       (  0.5000000 )
                  (     0          0          1      )       ( -0.5000000 )

 cart.    s( 7) = (  1.0000000  0.0000000  0.0000000 )    f =(  0.5000000 )
                  (  0.0000000 -1.0000000  0.0000000 )       (  0.7444191 )
                  (  0.0000000  0.0000000  1.0000000 )       ( -0.7592565 )


      isym =  8     inv. 180 deg rotation - cart. axis [1,0,0]   

 cryst.   s( 8) = (    -1          0          0      )
                  (     0          1          0      )
                  (     0          0          1      )

 cart.    s( 8) = ( -1.0000000  0.0000000  0.0000000 )
                  (  0.0000000  1.0000000  0.0000000 )
                  (  0.0000000  0.0000000  1.0000000 )


   Cartesian axes

     site n.     atom                  positions (alat units)
         1        Ni     tau(   1) = (   0.0000000   0.0000000   0.0000000  )
         2        Ni     tau(   2) = (   0.5000000   0.7444191   0.7592565  )
         3        F      tau(   3) = (   0.0000000   0.4286261   0.4846607  )
         4        F      tau(   4) = (   0.5000000   0.3157930   1.2439172  )
         5        F      tau(   5) = (   0.0000000   1.0602120   1.0338522  )
         6        F      tau(   6) = (   0.5000000   1.1730451   0.2745957  )

   Crystallographic axes

     site n.     atom                  positions (cryst. coord.)
         1        Ni     tau(   1) = (  0.0000000  0.0000000  0.0000000  )
         2        Ni     tau(   2) = (  0.5000000  0.5000000  0.5000000  )
         3        F      tau(   3) = (  0.0000000  0.2878930  0.3191680  )
         4        F      tau(   4) = (  0.5000000  0.2121070  0.8191680  )
         5        F      tau(   5) = (  0.0000000  0.7121070  0.6808320  )
         6        F      tau(   6) = (  0.5000000  0.7878930  0.1808320  )

     number of k points=   324  Marzari-Vanderbilt smearing, width (Ry)=  0.0050
                       cart. coord. in units 2pi/alat
        k(    1) = (   0.0000000   0.0000000   0.0000000), wk =   0.0009723
        k(    2) = (   0.0000000   0.0000000   0.0598672), wk =   0.0019446
        k(    3) = (   0.0000000   0.0000000   0.1197344), wk =   0.0019446
        k(    4) = (   0.0000000   0.0000000   0.1796015), wk =   0.0019446
        k(    5) = (   0.0000000   0.0000000   0.2394687), wk =   0.0019446
        k(    6) = (   0.0000000   0.0000000   0.2993359), wk =   0.0019446
        k(    7) = (   0.0000000   0.0610604   0.0000000), wk =   0.0019446
        k(    8) = (   0.0000000   0.0610604   0.0598672), wk =   0.0038892
        k(    9) = (   0.0000000   0.0610604   0.1197344), wk =   0.0038892
        k(   10) = (   0.0000000   0.0610604   0.1796015), wk =   0.0038892
        k(   11) = (   0.0000000   0.0610604   0.2394687), wk =   0.0038892
        k(   12) = (   0.0000000   0.0610604   0.2993359), wk =   0.0038892
        k(   13) = (   0.0000000   0.1221209   0.0000000), wk =   0.0019446
        k(   14) = (   0.0000000   0.1221209   0.0598672), wk =   0.0038892
        k(   15) = (   0.0000000   0.1221209   0.1197344), wk =   0.0038892
        k(   16) = (   0.0000000   0.1221209   0.1796015), wk =   0.0038892
        k(   17) = (   0.0000000   0.1221209   0.2394687), wk =   0.0038892
        k(   18) = (   0.0000000   0.1221209   0.2993359), wk =   0.0038892
        k(   19) = (   0.0000000   0.1831813   0.0000000), wk =   0.0019446
        k(   20) = (   0.0000000   0.1831813   0.0598672), wk =   0.0038892
        k(   21) = (   0.0000000   0.1831813   0.1197344), wk =   0.0038892
        k(   22) = (   0.0000000   0.1831813   0.1796015), wk =   0.0038892
        k(   23) = (   0.0000000   0.1831813   0.2394687), wk =   0.0038892
        k(   24) = (   0.0000000   0.1831813   0.2993359), wk =   0.0038892
        k(   25) = (   0.0000000   0.2442417   0.0000000), wk =   0.0019446
        k(   26) = (   0.0000000   0.2442417   0.0598672), wk =   0.0038892
        k(   27) = (   0.0000000   0.2442417   0.1197344), wk =   0.0038892
        k(   28) = (   0.0000000   0.2442417   0.1796015), wk =   0.0038892
        k(   29) = (   0.0000000   0.2442417   0.2394687), wk =   0.0038892
        k(   30) = (   0.0000000   0.2442417   0.2993359), wk =   0.0038892
        k(   31) = (   0.0000000   0.3053021   0.0000000), wk =   0.0019446
        k(   32) = (   0.0000000   0.3053021   0.0598672), wk =   0.0038892
        k(   33) = (   0.0000000   0.3053021   0.1197344), wk =   0.0038892
        k(   34) = (   0.0000000   0.3053021   0.1796015), wk =   0.0038892
        k(   35) = (   0.0000000   0.3053021   0.2394687), wk =   0.0038892
        k(   36) = (   0.0000000   0.3053021   0.2993359), wk =   0.0038892
        k(   37) = (   0.0588235   0.0000000   0.0000000), wk =   0.0019446
        k(   38) = (   0.0588235   0.0000000   0.0598672), wk =   0.0038892
        k(   39) = (   0.0588235   0.0000000   0.1197344), wk =   0.0038892
        k(   40) = (   0.0588235   0.0000000   0.1796015), wk =   0.0038892
        k(   41) = (   0.0588235   0.0000000   0.2394687), wk =   0.0038892
        k(   42) = (   0.0588235   0.0000000   0.2993359), wk =   0.0038892
        k(   43) = (   0.0588235   0.0610604   0.0000000), wk =   0.0038892
        k(   44) = (   0.0588235   0.0610604   0.0598672), wk =   0.0077783
        k(   45) = (   0.0588235   0.0610604   0.1197344), wk =   0.0077783
        k(   46) = (   0.0588235   0.0610604   0.1796015), wk =   0.0077783
        k(   47) = (   0.0588235   0.0610604   0.2394687), wk =   0.0077783
        k(   48) = (   0.0588235   0.0610604   0.2993359), wk =   0.0077783
        k(   49) = (   0.0588235   0.1221209   0.0000000), wk =   0.0038892
        k(   50) = (   0.0588235   0.1221209   0.0598672), wk =   0.0077783
        k(   51) = (   0.0588235   0.1221209   0.1197344), wk =   0.0077783
        k(   52) = (   0.0588235   0.1221209   0.1796015), wk =   0.0077783
        k(   53) = (   0.0588235   0.1221209   0.2394687), wk =   0.0077783
        k(   54) = (   0.0588235   0.1221209   0.2993359), wk =   0.0077783
        k(   55) = (   0.0588235   0.1831813   0.0000000), wk =   0.0038892
        k(   56) = (   0.0588235   0.1831813   0.0598672), wk =   0.0077783
        k(   57) = (   0.0588235   0.1831813   0.1197344), wk =   0.0077783
        k(   58) = (   0.0588235   0.1831813   0.1796015), wk =   0.0077783
        k(   59) = (   0.0588235   0.1831813   0.2394687), wk =   0.0077783
        k(   60) = (   0.0588235   0.1831813   0.2993359), wk =   0.0077783
        k(   61) = (   0.0588235   0.2442417   0.0000000), wk =   0.0038892
        k(   62) = (   0.0588235   0.2442417   0.0598672), wk =   0.0077783
        k(   63) = (   0.0588235   0.2442417   0.1197344), wk =   0.0077783
        k(   64) = (   0.0588235   0.2442417   0.1796015), wk =   0.0077783
        k(   65) = (   0.0588235   0.2442417   0.2394687), wk =   0.0077783
        k(   66) = (   0.0588235   0.2442417   0.2993359), wk =   0.0077783
        k(   67) = (   0.0588235   0.3053021   0.0000000), wk =   0.0038892
        k(   68) = (   0.0588235   0.3053021   0.0598672), wk =   0.0077783
        k(   69) = (   0.0588235   0.3053021   0.1197344), wk =   0.0077783
        k(   70) = (   0.0588235   0.3053021   0.1796015), wk =   0.0077783
        k(   71) = (   0.0588235   0.3053021   0.2394687), wk =   0.0077783
        k(   72) = (   0.0588235   0.3053021   0.2993359), wk =   0.0077783
        k(   73) = (   0.1176471   0.0000000   0.0000000), wk =   0.0019446
        k(   74) = (   0.1176471   0.0000000   0.0598672), wk =   0.0038892
        k(   75) = (   0.1176471   0.0000000   0.1197344), wk =   0.0038892
        k(   76) = (   0.1176471   0.0000000   0.1796015), wk =   0.0038892
        k(   77) = (   0.1176471   0.0000000   0.2394687), wk =   0.0038892
        k(   78) = (   0.1176471   0.0000000   0.2993359), wk =   0.0038892
        k(   79) = (   0.1176471   0.0610604   0.0000000), wk =   0.0038892
        k(   80) = (   0.1176471   0.0610604   0.0598672), wk =   0.0077783
        k(   81) = (   0.1176471   0.0610604   0.1197344), wk =   0.0077783
        k(   82) = (   0.1176471   0.0610604   0.1796015), wk =   0.0077783
        k(   83) = (   0.1176471   0.0610604   0.2394687), wk =   0.0077783
        k(   84) = (   0.1176471   0.0610604   0.2993359), wk =   0.0077783
        k(   85) = (   0.1176471   0.1221209   0.0000000), wk =   0.0038892
        k(   86) = (   0.1176471   0.1221209   0.0598672), wk =   0.0077783
        k(   87) = (   0.1176471   0.1221209   0.1197344), wk =   0.0077783
        k(   88) = (   0.1176471   0.1221209   0.1796015), wk =   0.0077783
        k(   89) = (   0.1176471   0.1221209   0.2394687), wk =   0.0077783
        k(   90) = (   0.1176471   0.1221209   0.2993359), wk =   0.0077783
        k(   91) = (   0.1176471   0.1831813   0.0000000), wk =   0.0038892
        k(   92) = (   0.1176471   0.1831813   0.0598672), wk =   0.0077783
        k(   93) = (   0.1176471   0.1831813   0.1197344), wk =   0.0077783
        k(   94) = (   0.1176471   0.1831813   0.1796015), wk =   0.0077783
        k(   95) = (   0.1176471   0.1831813   0.2394687), wk =   0.0077783
        k(   96) = (   0.1176471   0.1831813   0.2993359), wk =   0.0077783
        k(   97) = (   0.1176471   0.2442417   0.0000000), wk =   0.0038892
        k(   98) = (   0.1176471   0.2442417   0.0598672), wk =   0.0077783
        k(   99) = (   0.1176471   0.2442417   0.1197344), wk =   0.0077783
        k(  100) = (   0.1176471   0.2442417   0.1796015), wk =   0.0077783
        k(  101) = (   0.1176471   0.2442417   0.2394687), wk =   0.0077783
        k(  102) = (   0.1176471   0.2442417   0.2993359), wk =   0.0077783
        k(  103) = (   0.1176471   0.3053021   0.0000000), wk =   0.0038892
        k(  104) = (   0.1176471   0.3053021   0.0598672), wk =   0.0077783
        k(  105) = (   0.1176471   0.3053021   0.1197344), wk =   0.0077783
        k(  106) = (   0.1176471   0.3053021   0.1796015), wk =   0.0077783
        k(  107) = (   0.1176471   0.3053021   0.2394687), wk =   0.0077783
        k(  108) = (   0.1176471   0.3053021   0.2993359), wk =   0.0077783
        k(  109) = (   0.1764706   0.0000000   0.0000000), wk =   0.0019446
        k(  110) = (   0.1764706   0.0000000   0.0598672), wk =   0.0038892
        k(  111) = (   0.1764706   0.0000000   0.1197344), wk =   0.0038892
        k(  112) = (   0.1764706   0.0000000   0.1796015), wk =   0.0038892
        k(  113) = (   0.1764706   0.0000000   0.2394687), wk =   0.0038892
        k(  114) = (   0.1764706   0.0000000   0.2993359), wk =   0.0038892
        k(  115) = (   0.1764706   0.0610604   0.0000000), wk =   0.0038892
        k(  116) = (   0.1764706   0.0610604   0.0598672), wk =   0.0077783
        k(  117) = (   0.1764706   0.0610604   0.1197344), wk =   0.0077783
        k(  118) = (   0.1764706   0.0610604   0.1796015), wk =   0.0077783
        k(  119) = (   0.1764706   0.0610604   0.2394687), wk =   0.0077783
        k(  120) = (   0.1764706   0.0610604   0.2993359), wk =   0.0077783
        k(  121) = (   0.1764706   0.1221209   0.0000000), wk =   0.0038892
        k(  122) = (   0.1764706   0.1221209   0.0598672), wk =   0.0077783
        k(  123) = (   0.1764706   0.1221209   0.1197344), wk =   0.0077783
        k(  124) = (   0.1764706   0.1221209   0.1796015), wk =   0.0077783
        k(  125) = (   0.1764706   0.1221209   0.2394687), wk =   0.0077783
        k(  126) = (   0.1764706   0.1221209   0.2993359), wk =   0.0077783
        k(  127) = (   0.1764706   0.1831813   0.0000000), wk =   0.0038892
        k(  128) = (   0.1764706   0.1831813   0.0598672), wk =   0.0077783
        k(  129) = (   0.1764706   0.1831813   0.1197344), wk =   0.0077783
        k(  130) = (   0.1764706   0.1831813   0.1796015), wk =   0.0077783
        k(  131) = (   0.1764706   0.1831813   0.2394687), wk =   0.0077783
        k(  132) = (   0.1764706   0.1831813   0.2993359), wk =   0.0077783
        k(  133) = (   0.1764706   0.2442417   0.0000000), wk =   0.0038892
        k(  134) = (   0.1764706   0.2442417   0.0598672), wk =   0.0077783
        k(  135) = (   0.1764706   0.2442417   0.1197344), wk =   0.0077783
        k(  136) = (   0.1764706   0.2442417   0.1796015), wk =   0.0077783
        k(  137) = (   0.1764706   0.2442417   0.2394687), wk =   0.0077783
        k(  138) = (   0.1764706   0.2442417   0.2993359), wk =   0.0077783
        k(  139) = (   0.1764706   0.3053021   0.0000000), wk =   0.0038892
        k(  140) = (   0.1764706   0.3053021   0.0598672), wk =   0.0077783
        k(  141) = (   0.1764706   0.3053021   0.1197344), wk =   0.0077783
        k(  142) = (   0.1764706   0.3053021   0.1796015), wk =   0.0077783
        k(  143) = (   0.1764706   0.3053021   0.2394687), wk =   0.0077783
        k(  144) = (   0.1764706   0.3053021   0.2993359), wk =   0.0077783
        k(  145) = (   0.2352941   0.0000000   0.0000000), wk =   0.0019446
        k(  146) = (   0.2352941   0.0000000   0.0598672), wk =   0.0038892
        k(  147) = (   0.2352941   0.0000000   0.1197344), wk =   0.0038892
        k(  148) = (   0.2352941   0.0000000   0.1796015), wk =   0.0038892
        k(  149) = (   0.2352941   0.0000000   0.2394687), wk =   0.0038892
        k(  150) = (   0.2352941   0.0000000   0.2993359), wk =   0.0038892
        k(  151) = (   0.2352941   0.0610604   0.0000000), wk =   0.0038892
        k(  152) = (   0.2352941   0.0610604   0.0598672), wk =   0.0077783
        k(  153) = (   0.2352941   0.0610604   0.1197344), wk =   0.0077783
        k(  154) = (   0.2352941   0.0610604   0.1796015), wk =   0.0077783
        k(  155) = (   0.2352941   0.0610604   0.2394687), wk =   0.0077783
        k(  156) = (   0.2352941   0.0610604   0.2993359), wk =   0.0077783
        k(  157) = (   0.2352941   0.1221209   0.0000000), wk =   0.0038892
        k(  158) = (   0.2352941   0.1221209   0.0598672), wk =   0.0077783
        k(  159) = (   0.2352941   0.1221209   0.1197344), wk =   0.0077783
        k(  160) = (   0.2352941   0.1221209   0.1796015), wk =   0.0077783
        k(  161) = (   0.2352941   0.1221209   0.2394687), wk =   0.0077783
        k(  162) = (   0.2352941   0.1221209   0.2993359), wk =   0.0077783
        k(  163) = (   0.2352941   0.1831813   0.0000000), wk =   0.0038892
        k(  164) = (   0.2352941   0.1831813   0.0598672), wk =   0.0077783
        k(  165) = (   0.2352941   0.1831813   0.1197344), wk =   0.0077783
        k(  166) = (   0.2352941   0.1831813   0.1796015), wk =   0.0077783
        k(  167) = (   0.2352941   0.1831813   0.2394687), wk =   0.0077783
        k(  168) = (   0.2352941   0.1831813   0.2993359), wk =   0.0077783
        k(  169) = (   0.2352941   0.2442417   0.0000000), wk =   0.0038892
        k(  170) = (   0.2352941   0.2442417   0.0598672), wk =   0.0077783
        k(  171) = (   0.2352941   0.2442417   0.1197344), wk =   0.0077783
        k(  172) = (   0.2352941   0.2442417   0.1796015), wk =   0.0077783
        k(  173) = (   0.2352941   0.2442417   0.2394687), wk =   0.0077783
        k(  174) = (   0.2352941   0.2442417   0.2993359), wk =   0.0077783
        k(  175) = (   0.2352941   0.3053021   0.0000000), wk =   0.0038892
        k(  176) = (   0.2352941   0.3053021   0.0598672), wk =   0.0077783
        k(  177) = (   0.2352941   0.3053021   0.1197344), wk =   0.0077783
        k(  178) = (   0.2352941   0.3053021   0.1796015), wk =   0.0077783
        k(  179) = (   0.2352941   0.3053021   0.2394687), wk =   0.0077783
        k(  180) = (   0.2352941   0.3053021   0.2993359), wk =   0.0077783
        k(  181) = (   0.2941176   0.0000000   0.0000000), wk =   0.0019446
        k(  182) = (   0.2941176   0.0000000   0.0598672), wk =   0.0038892
        k(  183) = (   0.2941176   0.0000000   0.1197344), wk =   0.0038892
        k(  184) = (   0.2941176   0.0000000   0.1796015), wk =   0.0038892
        k(  185) = (   0.2941176   0.0000000   0.2394687), wk =   0.0038892
        k(  186) = (   0.2941176   0.0000000   0.2993359), wk =   0.0038892
        k(  187) = (   0.2941176   0.0610604   0.0000000), wk =   0.0038892
        k(  188) = (   0.2941176   0.0610604   0.0598672), wk =   0.0077783
        k(  189) = (   0.2941176   0.0610604   0.1197344), wk =   0.0077783
        k(  190) = (   0.2941176   0.0610604   0.1796015), wk =   0.0077783
        k(  191) = (   0.2941176   0.0610604   0.2394687), wk =   0.0077783
        k(  192) = (   0.2941176   0.0610604   0.2993359), wk =   0.0077783
        k(  193) = (   0.2941176   0.1221209   0.0000000), wk =   0.0038892
        k(  194) = (   0.2941176   0.1221209   0.0598672), wk =   0.0077783
        k(  195) = (   0.2941176   0.1221209   0.1197344), wk =   0.0077783
        k(  196) = (   0.2941176   0.1221209   0.1796015), wk =   0.0077783
        k(  197) = (   0.2941176   0.1221209   0.2394687), wk =   0.0077783
        k(  198) = (   0.2941176   0.1221209   0.2993359), wk =   0.0077783
        k(  199) = (   0.2941176   0.1831813   0.0000000), wk =   0.0038892
        k(  200) = (   0.2941176   0.1831813   0.0598672), wk =   0.0077783
        k(  201) = (   0.2941176   0.1831813   0.1197344), wk =   0.0077783
        k(  202) = (   0.2941176   0.1831813   0.1796015), wk =   0.0077783
        k(  203) = (   0.2941176   0.1831813   0.2394687), wk =   0.0077783
        k(  204) = (   0.2941176   0.1831813   0.2993359), wk =   0.0077783
        k(  205) = (   0.2941176   0.2442417   0.0000000), wk =   0.0038892
        k(  206) = (   0.2941176   0.2442417   0.0598672), wk =   0.0077783
        k(  207) = (   0.2941176   0.2442417   0.1197344), wk =   0.0077783
        k(  208) = (   0.2941176   0.2442417   0.1796015), wk =   0.0077783
        k(  209) = (   0.2941176   0.2442417   0.2394687), wk =   0.0077783
        k(  210) = (   0.2941176   0.2442417   0.2993359), wk =   0.0077783
        k(  211) = (   0.2941176   0.3053021   0.0000000), wk =   0.0038892
        k(  212) = (   0.2941176   0.3053021   0.0598672), wk =   0.0077783
        k(  213) = (   0.2941176   0.3053021   0.1197344), wk =   0.0077783
        k(  214) = (   0.2941176   0.3053021   0.1796015), wk =   0.0077783
        k(  215) = (   0.2941176   0.3053021   0.2394687), wk =   0.0077783
        k(  216) = (   0.2941176   0.3053021   0.2993359), wk =   0.0077783
        k(  217) = (   0.3529412   0.0000000   0.0000000), wk =   0.0019446
        k(  218) = (   0.3529412   0.0000000   0.0598672), wk =   0.0038892
        k(  219) = (   0.3529412   0.0000000   0.1197344), wk =   0.0038892
        k(  220) = (   0.3529412   0.0000000   0.1796015), wk =   0.0038892
        k(  221) = (   0.3529412   0.0000000   0.2394687), wk =   0.0038892
        k(  222) = (   0.3529412   0.0000000   0.2993359), wk =   0.0038892
        k(  223) = (   0.3529412   0.0610604   0.0000000), wk =   0.0038892
        k(  224) = (   0.3529412   0.0610604   0.0598672), wk =   0.0077783
        k(  225) = (   0.3529412   0.0610604   0.1197344), wk =   0.0077783
        k(  226) = (   0.3529412   0.0610604   0.1796015), wk =   0.0077783
        k(  227) = (   0.3529412   0.0610604   0.2394687), wk =   0.0077783
        k(  228) = (   0.3529412   0.0610604   0.2993359), wk =   0.0077783
        k(  229) = (   0.3529412   0.1221209   0.0000000), wk =   0.0038892
        k(  230) = (   0.3529412   0.1221209   0.0598672), wk =   0.0077783
        k(  231) = (   0.3529412   0.1221209   0.1197344), wk =   0.0077783
        k(  232) = (   0.3529412   0.1221209   0.1796015), wk =   0.0077783
        k(  233) = (   0.3529412   0.1221209   0.2394687), wk =   0.0077783
        k(  234) = (   0.3529412   0.1221209   0.2993359), wk =   0.0077783
        k(  235) = (   0.3529412   0.1831813   0.0000000), wk =   0.0038892
        k(  236) = (   0.3529412   0.1831813   0.0598672), wk =   0.0077783
        k(  237) = (   0.3529412   0.1831813   0.1197344), wk =   0.0077783
        k(  238) = (   0.3529412   0.1831813   0.1796015), wk =   0.0077783
        k(  239) = (   0.3529412   0.1831813   0.2394687), wk =   0.0077783
        k(  240) = (   0.3529412   0.1831813   0.2993359), wk =   0.0077783
        k(  241) = (   0.3529412   0.2442417   0.0000000), wk =   0.0038892
        k(  242) = (   0.3529412   0.2442417   0.0598672), wk =   0.0077783
        k(  243) = (   0.3529412   0.2442417   0.1197344), wk =   0.0077783
        k(  244) = (   0.3529412   0.2442417   0.1796015), wk =   0.0077783
        k(  245) = (   0.3529412   0.2442417   0.2394687), wk =   0.0077783
        k(  246) = (   0.3529412   0.2442417   0.2993359), wk =   0.0077783
        k(  247) = (   0.3529412   0.3053021   0.0000000), wk =   0.0038892
        k(  248) = (   0.3529412   0.3053021   0.0598672), wk =   0.0077783
        k(  249) = (   0.3529412   0.3053021   0.1197344), wk =   0.0077783
        k(  250) = (   0.3529412   0.3053021   0.1796015), wk =   0.0077783
        k(  251) = (   0.3529412   0.3053021   0.2394687), wk =   0.0077783
        k(  252) = (   0.3529412   0.3053021   0.2993359), wk =   0.0077783
        k(  253) = (   0.4117647   0.0000000   0.0000000), wk =   0.0019446
        k(  254) = (   0.4117647   0.0000000   0.0598672), wk =   0.0038892
        k(  255) = (   0.4117647   0.0000000   0.1197344), wk =   0.0038892
        k(  256) = (   0.4117647   0.0000000   0.1796015), wk =   0.0038892
        k(  257) = (   0.4117647   0.0000000   0.2394687), wk =   0.0038892
        k(  258) = (   0.4117647   0.0000000   0.2993359), wk =   0.0038892
        k(  259) = (   0.4117647   0.0610604   0.0000000), wk =   0.0038892
        k(  260) = (   0.4117647   0.0610604   0.0598672), wk =   0.0077783
        k(  261) = (   0.4117647   0.0610604   0.1197344), wk =   0.0077783
        k(  262) = (   0.4117647   0.0610604   0.1796015), wk =   0.0077783
        k(  263) = (   0.4117647   0.0610604   0.2394687), wk =   0.0077783
        k(  264) = (   0.4117647   0.0610604   0.2993359), wk =   0.0077783
        k(  265) = (   0.4117647   0.1221209   0.0000000), wk =   0.0038892
        k(  266) = (   0.4117647   0.1221209   0.0598672), wk =   0.0077783
        k(  267) = (   0.4117647   0.1221209   0.1197344), wk =   0.0077783
        k(  268) = (   0.4117647   0.1221209   0.1796015), wk =   0.0077783
        k(  269) = (   0.4117647   0.1221209   0.2394687), wk =   0.0077783
        k(  270) = (   0.4117647   0.1221209   0.2993359), wk =   0.0077783
        k(  271) = (   0.4117647   0.1831813   0.0000000), wk =   0.0038892
        k(  272) = (   0.4117647   0.1831813   0.0598672), wk =   0.0077783
        k(  273) = (   0.4117647   0.1831813   0.1197344), wk =   0.0077783
        k(  274) = (   0.4117647   0.1831813   0.1796015), wk =   0.0077783
        k(  275) = (   0.4117647   0.1831813   0.2394687), wk =   0.0077783
        k(  276) = (   0.4117647   0.1831813   0.2993359), wk =   0.0077783
        k(  277) = (   0.4117647   0.2442417   0.0000000), wk =   0.0038892
        k(  278) = (   0.4117647   0.2442417   0.0598672), wk =   0.0077783
        k(  279) = (   0.4117647   0.2442417   0.1197344), wk =   0.0077783
        k(  280) = (   0.4117647   0.2442417   0.1796015), wk =   0.0077783
        k(  281) = (   0.4117647   0.2442417   0.2394687), wk =   0.0077783
        k(  282) = (   0.4117647   0.2442417   0.2993359), wk =   0.0077783
        k(  283) = (   0.4117647   0.3053021   0.0000000), wk =   0.0038892
        k(  284) = (   0.4117647   0.3053021   0.0598672), wk =   0.0077783
        k(  285) = (   0.4117647   0.3053021   0.1197344), wk =   0.0077783
        k(  286) = (   0.4117647   0.3053021   0.1796015), wk =   0.0077783
        k(  287) = (   0.4117647   0.3053021   0.2394687), wk =   0.0077783
        k(  288) = (   0.4117647   0.3053021   0.2993359), wk =   0.0077783
        k(  289) = (   0.4705882   0.0000000   0.0000000), wk =   0.0019446
        k(  290) = (   0.4705882   0.0000000   0.0598672), wk =   0.0038892
        k(  291) = (   0.4705882   0.0000000   0.1197344), wk =   0.0038892
        k(  292) = (   0.4705882   0.0000000   0.1796015), wk =   0.0038892
        k(  293) = (   0.4705882   0.0000000   0.2394687), wk =   0.0038892
        k(  294) = (   0.4705882   0.0000000   0.2993359), wk =   0.0038892
        k(  295) = (   0.4705882   0.0610604   0.0000000), wk =   0.0038892
        k(  296) = (   0.4705882   0.0610604   0.0598672), wk =   0.0077783
        k(  297) = (   0.4705882   0.0610604   0.1197344), wk =   0.0077783
        k(  298) = (   0.4705882   0.0610604   0.1796015), wk =   0.0077783
        k(  299) = (   0.4705882   0.0610604   0.2394687), wk =   0.0077783
        k(  300) = (   0.4705882   0.0610604   0.2993359), wk =   0.0077783
        k(  301) = (   0.4705882   0.1221209   0.0000000), wk =   0.0038892
        k(  302) = (   0.4705882   0.1221209   0.0598672), wk =   0.0077783
        k(  303) = (   0.4705882   0.1221209   0.1197344), wk =   0.0077783
        k(  304) = (   0.4705882   0.1221209   0.1796015), wk =   0.0077783
        k(  305) = (   0.4705882   0.1221209   0.2394687), wk =   0.0077783
        k(  306) = (   0.4705882   0.1221209   0.2993359), wk =   0.0077783
        k(  307) = (   0.4705882   0.1831813   0.0000000), wk =   0.0038892
        k(  308) = (   0.4705882   0.1831813   0.0598672), wk =   0.0077783
        k(  309) = (   0.4705882   0.1831813   0.1197344), wk =   0.0077783
        k(  310) = (   0.4705882   0.1831813   0.1796015), wk =   0.0077783
        k(  311) = (   0.4705882   0.1831813   0.2394687), wk =   0.0077783
        k(  312) = (   0.4705882   0.1831813   0.2993359), wk =   0.0077783
        k(  313) = (   0.4705882   0.2442417   0.0000000), wk =   0.0038892
        k(  314) = (   0.4705882   0.2442417   0.0598672), wk =   0.0077783
        k(  315) = (   0.4705882   0.2442417   0.1197344), wk =   0.0077783
        k(  316) = (   0.4705882   0.2442417   0.1796015), wk =   0.0077783
        k(  317) = (   0.4705882   0.2442417   0.2394687), wk =   0.0077783
        k(  318) = (   0.4705882   0.2442417   0.2993359), wk =   0.0077783
        k(  319) = (   0.4705882   0.3053021   0.0000000), wk =   0.0038892
        k(  320) = (   0.4705882   0.3053021   0.0598672), wk =   0.0077783
        k(  321) = (   0.4705882   0.3053021   0.1197344), wk =   0.0077783
        k(  322) = (   0.4705882   0.3053021   0.1796015), wk =   0.0077783
        k(  323) = (   0.4705882   0.3053021   0.2394687), wk =   0.0077783
        k(  324) = (   0.4705882   0.3053021   0.2993359), wk =   0.0077783

                       cryst. coord.
        k(    1) = (   0.0000000   0.0000000   0.0000000), wk =   0.0009723
        k(    2) = (   0.0000000   0.0000000   0.0909091), wk =   0.0019446
        k(    3) = (   0.0000000   0.0000000   0.1818182), wk =   0.0019446
        k(    4) = (   0.0000000   0.0000000   0.2727273), wk =   0.0019446
        k(    5) = (   0.0000000   0.0000000   0.3636364), wk =   0.0019446
        k(    6) = (   0.0000000   0.0000000   0.4545455), wk =   0.0019446
        k(    7) = (   0.0000000   0.0909091   0.0000000), wk =   0.0019446
        k(    8) = (   0.0000000   0.0909091   0.0909091), wk =   0.0038892
        k(    9) = (   0.0000000   0.0909091   0.1818182), wk =   0.0038892
        k(   10) = (   0.0000000   0.0909091   0.2727273), wk =   0.0038892
        k(   11) = (   0.0000000   0.0909091   0.3636364), wk =   0.0038892
        k(   12) = (   0.0000000   0.0909091   0.4545455), wk =   0.0038892
        k(   13) = (   0.0000000   0.1818182   0.0000000), wk =   0.0019446
        k(   14) = (   0.0000000   0.1818182   0.0909091), wk =   0.0038892
        k(   15) = (   0.0000000   0.1818182   0.1818182), wk =   0.0038892
        k(   16) = (   0.0000000   0.1818182   0.2727273), wk =   0.0038892
        k(   17) = (   0.0000000   0.1818182   0.3636364), wk =   0.0038892
        k(   18) = (   0.0000000   0.1818182   0.4545455), wk =   0.0038892
        k(   19) = (   0.0000000   0.2727273   0.0000000), wk =   0.0019446
        k(   20) = (   0.0000000   0.2727273   0.0909091), wk =   0.0038892
        k(   21) = (   0.0000000   0.2727273   0.1818182), wk =   0.0038892
        k(   22) = (   0.0000000   0.2727273   0.2727273), wk =   0.0038892
        k(   23) = (   0.0000000   0.2727273   0.3636364), wk =   0.0038892
        k(   24) = (   0.0000000   0.2727273   0.4545455), wk =   0.0038892
        k(   25) = (   0.0000000   0.3636364   0.0000000), wk =   0.0019446
        k(   26) = (   0.0000000   0.3636364   0.0909091), wk =   0.0038892
        k(   27) = (   0.0000000   0.3636364   0.1818182), wk =   0.0038892
        k(   28) = (   0.0000000   0.3636364   0.2727273), wk =   0.0038892
        k(   29) = (   0.0000000   0.3636364   0.3636364), wk =   0.0038892
        k(   30) = (   0.0000000   0.3636364   0.4545455), wk =   0.0038892
        k(   31) = (   0.0000000   0.4545455   0.0000000), wk =   0.0019446
        k(   32) = (   0.0000000   0.4545455   0.0909091), wk =   0.0038892
        k(   33) = (   0.0000000   0.4545455   0.1818182), wk =   0.0038892
        k(   34) = (   0.0000000   0.4545455   0.2727273), wk =   0.0038892
        k(   35) = (   0.0000000   0.4545455   0.3636364), wk =   0.0038892
        k(   36) = (   0.0000000   0.4545455   0.4545455), wk =   0.0038892
        k(   37) = (   0.0588235   0.0000000   0.0000000), wk =   0.0019446
        k(   38) = (   0.0588235   0.0000000   0.0909091), wk =   0.0038892
        k(   39) = (   0.0588235   0.0000000   0.1818182), wk =   0.0038892
        k(   40) = (   0.0588235   0.0000000   0.2727273), wk =   0.0038892
        k(   41) = (   0.0588235   0.0000000   0.3636364), wk =   0.0038892
        k(   42) = (   0.0588235   0.0000000   0.4545455), wk =   0.0038892
        k(   43) = (   0.0588235   0.0909091   0.0000000), wk =   0.0038892
        k(   44) = (   0.0588235   0.0909091   0.0909091), wk =   0.0077783
        k(   45) = (   0.0588235   0.0909091   0.1818182), wk =   0.0077783
        k(   46) = (   0.0588235   0.0909091   0.2727273), wk =   0.0077783
        k(   47) = (   0.0588235   0.0909091   0.3636364), wk =   0.0077783
        k(   48) = (   0.0588235   0.0909091   0.4545455), wk =   0.0077783
        k(   49) = (   0.0588235   0.1818182   0.0000000), wk =   0.0038892
        k(   50) = (   0.0588235   0.1818182   0.0909091), wk =   0.0077783
        k(   51) = (   0.0588235   0.1818182   0.1818182), wk =   0.0077783
        k(   52) = (   0.0588235   0.1818182   0.2727273), wk =   0.0077783
        k(   53) = (   0.0588235   0.1818182   0.3636364), wk =   0.0077783
        k(   54) = (   0.0588235   0.1818182   0.4545455), wk =   0.0077783
        k(   55) = (   0.0588235   0.2727273   0.0000000), wk =   0.0038892
        k(   56) = (   0.0588235   0.2727273   0.0909091), wk =   0.0077783
        k(   57) = (   0.0588235   0.2727273   0.1818182), wk =   0.0077783
        k(   58) = (   0.0588235   0.2727273   0.2727273), wk =   0.0077783
        k(   59) = (   0.0588235   0.2727273   0.3636364), wk =   0.0077783
        k(   60) = (   0.0588235   0.2727273   0.4545455), wk =   0.0077783
        k(   61) = (   0.0588235   0.3636364   0.0000000), wk =   0.0038892
        k(   62) = (   0.0588235   0.3636364   0.0909091), wk =   0.0077783
        k(   63) = (   0.0588235   0.3636364   0.1818182), wk =   0.0077783
        k(   64) = (   0.0588235   0.3636364   0.2727273), wk =   0.0077783
        k(   65) = (   0.0588235   0.3636364   0.3636364), wk =   0.0077783
        k(   66) = (   0.0588235   0.3636364   0.4545455), wk =   0.0077783
        k(   67) = (   0.0588235   0.4545455   0.0000000), wk =   0.0038892
        k(   68) = (   0.0588235   0.4545455   0.0909091), wk =   0.0077783
        k(   69) = (   0.0588235   0.4545455   0.1818182), wk =   0.0077783
        k(   70) = (   0.0588235   0.4545455   0.2727273), wk =   0.0077783
        k(   71) = (   0.0588235   0.4545455   0.3636364), wk =   0.0077783
        k(   72) = (   0.0588235   0.4545455   0.4545455), wk =   0.0077783
        k(   73) = (   0.1176471   0.0000000   0.0000000), wk =   0.0019446
        k(   74) = (   0.1176471   0.0000000   0.0909091), wk =   0.0038892
        k(   75) = (   0.1176471   0.0000000   0.1818182), wk =   0.0038892
        k(   76) = (   0.1176471   0.0000000   0.2727273), wk =   0.0038892
        k(   77) = (   0.1176471   0.0000000   0.3636364), wk =   0.0038892
        k(   78) = (   0.1176471   0.0000000   0.4545455), wk =   0.0038892
        k(   79) = (   0.1176471   0.0909091   0.0000000), wk =   0.0038892
        k(   80) = (   0.1176471   0.0909091   0.0909091), wk =   0.0077783
        k(   81) = (   0.1176471   0.0909091   0.1818182), wk =   0.0077783
        k(   82) = (   0.1176471   0.0909091   0.2727273), wk =   0.0077783
        k(   83) = (   0.1176471   0.0909091   0.3636364), wk =   0.0077783
        k(   84) = (   0.1176471   0.0909091   0.4545455), wk =   0.0077783
        k(   85) = (   0.1176471   0.1818182   0.0000000), wk =   0.0038892
        k(   86) = (   0.1176471   0.1818182   0.0909091), wk =   0.0077783
        k(   87) = (   0.1176471   0.1818182   0.1818182), wk =   0.0077783
        k(   88) = (   0.1176471   0.1818182   0.2727273), wk =   0.0077783
        k(   89) = (   0.1176471   0.1818182   0.3636364), wk =   0.0077783
        k(   90) = (   0.1176471   0.1818182   0.4545455), wk =   0.0077783
        k(   91) = (   0.1176471   0.2727273   0.0000000), wk =   0.0038892
        k(   92) = (   0.1176471   0.2727273   0.0909091), wk =   0.0077783
        k(   93) = (   0.1176471   0.2727273   0.1818182), wk =   0.0077783
        k(   94) = (   0.1176471   0.2727273   0.2727273), wk =   0.0077783
        k(   95) = (   0.1176471   0.2727273   0.3636364), wk =   0.0077783
        k(   96) = (   0.1176471   0.2727273   0.4545455), wk =   0.0077783
        k(   97) = (   0.1176471   0.3636364   0.0000000), wk =   0.0038892
        k(   98) = (   0.1176471   0.3636364   0.0909091), wk =   0.0077783
        k(   99) = (   0.1176471   0.3636364   0.1818182), wk =   0.0077783
        k(  100) = (   0.1176471   0.3636364   0.2727273), wk =   0.0077783
        k(  101) = (   0.1176471   0.3636364   0.3636364), wk =   0.0077783
        k(  102) = (   0.1176471   0.3636364   0.4545455), wk =   0.0077783
        k(  103) = (   0.1176471   0.4545455   0.0000000), wk =   0.0038892
        k(  104) = (   0.1176471   0.4545455   0.0909091), wk =   0.0077783
        k(  105) = (   0.1176471   0.4545455   0.1818182), wk =   0.0077783
        k(  106) = (   0.1176471   0.4545455   0.2727273), wk =   0.0077783
        k(  107) = (   0.1176471   0.4545455   0.3636364), wk =   0.0077783
        k(  108) = (   0.1176471   0.4545455   0.4545455), wk =   0.0077783
        k(  109) = (   0.1764706   0.0000000   0.0000000), wk =   0.0019446
        k(  110) = (   0.1764706   0.0000000   0.0909091), wk =   0.0038892
        k(  111) = (   0.1764706   0.0000000   0.1818182), wk =   0.0038892
        k(  112) = (   0.1764706   0.0000000   0.2727273), wk =   0.0038892
        k(  113) = (   0.1764706   0.0000000   0.3636364), wk =   0.0038892
        k(  114) = (   0.1764706   0.0000000   0.4545455), wk =   0.0038892
        k(  115) = (   0.1764706   0.0909091   0.0000000), wk =   0.0038892
        k(  116) = (   0.1764706   0.0909091   0.0909091), wk =   0.0077783
        k(  117) = (   0.1764706   0.0909091   0.1818182), wk =   0.0077783
        k(  118) = (   0.1764706   0.0909091   0.2727273), wk =   0.0077783
        k(  119) = (   0.1764706   0.0909091   0.3636364), wk =   0.0077783
        k(  120) = (   0.1764706   0.0909091   0.4545455), wk =   0.0077783
        k(  121) = (   0.1764706   0.1818182   0.0000000), wk =   0.0038892
        k(  122) = (   0.1764706   0.1818182   0.0909091), wk =   0.0077783
        k(  123) = (   0.1764706   0.1818182   0.1818182), wk =   0.0077783
        k(  124) = (   0.1764706   0.1818182   0.2727273), wk =   0.0077783
        k(  125) = (   0.1764706   0.1818182   0.3636364), wk =   0.0077783
        k(  126) = (   0.1764706   0.1818182   0.4545455), wk =   0.0077783
        k(  127) = (   0.1764706   0.2727273   0.0000000), wk =   0.0038892
        k(  128) = (   0.1764706   0.2727273   0.0909091), wk =   0.0077783
        k(  129) = (   0.1764706   0.2727273   0.1818182), wk =   0.0077783
        k(  130) = (   0.1764706   0.2727273   0.2727273), wk =   0.0077783
        k(  131) = (   0.1764706   0.2727273   0.3636364), wk =   0.0077783
        k(  132) = (   0.1764706   0.2727273   0.4545455), wk =   0.0077783
        k(  133) = (   0.1764706   0.3636364   0.0000000), wk =   0.0038892
        k(  134) = (   0.1764706   0.3636364   0.0909091), wk =   0.0077783
        k(  135) = (   0.1764706   0.3636364   0.1818182), wk =   0.0077783
        k(  136) = (   0.1764706   0.3636364   0.2727273), wk =   0.0077783
        k(  137) = (   0.1764706   0.3636364   0.3636364), wk =   0.0077783
        k(  138) = (   0.1764706   0.3636364   0.4545455), wk =   0.0077783
        k(  139) = (   0.1764706   0.4545455   0.0000000), wk =   0.0038892
        k(  140) = (   0.1764706   0.4545455   0.0909091), wk =   0.0077783
        k(  141) = (   0.1764706   0.4545455   0.1818182), wk =   0.0077783
        k(  142) = (   0.1764706   0.4545455   0.2727273), wk =   0.0077783
        k(  143) = (   0.1764706   0.4545455   0.3636364), wk =   0.0077783
        k(  144) = (   0.1764706   0.4545455   0.4545455), wk =   0.0077783
        k(  145) = (   0.2352941   0.0000000   0.0000000), wk =   0.0019446
        k(  146) = (   0.2352941   0.0000000   0.0909091), wk =   0.0038892
        k(  147) = (   0.2352941   0.0000000   0.1818182), wk =   0.0038892
        k(  148) = (   0.2352941   0.0000000   0.2727273), wk =   0.0038892
        k(  149) = (   0.2352941   0.0000000   0.3636364), wk =   0.0038892
        k(  150) = (   0.2352941   0.0000000   0.4545455), wk =   0.0038892
        k(  151) = (   0.2352941   0.0909091   0.0000000), wk =   0.0038892
        k(  152) = (   0.2352941   0.0909091   0.0909091), wk =   0.0077783
        k(  153) = (   0.2352941   0.0909091   0.1818182), wk =   0.0077783
        k(  154) = (   0.2352941   0.0909091   0.2727273), wk =   0.0077783
        k(  155) = (   0.2352941   0.0909091   0.3636364), wk =   0.0077783
        k(  156) = (   0.2352941   0.0909091   0.4545455), wk =   0.0077783
        k(  157) = (   0.2352941   0.1818182   0.0000000), wk =   0.0038892
        k(  158) = (   0.2352941   0.1818182   0.0909091), wk =   0.0077783
        k(  159) = (   0.2352941   0.1818182   0.1818182), wk =   0.0077783
        k(  160) = (   0.2352941   0.1818182   0.2727273), wk =   0.0077783
        k(  161) = (   0.2352941   0.1818182   0.3636364), wk =   0.0077783
        k(  162) = (   0.2352941   0.1818182   0.4545455), wk =   0.0077783
        k(  163) = (   0.2352941   0.2727273   0.0000000), wk =   0.0038892
        k(  164) = (   0.2352941   0.2727273   0.0909091), wk =   0.0077783
        k(  165) = (   0.2352941   0.2727273   0.1818182), wk =   0.0077783
        k(  166) = (   0.2352941   0.2727273   0.2727273), wk =   0.0077783
        k(  167) = (   0.2352941   0.2727273   0.3636364), wk =   0.0077783
        k(  168) = (   0.2352941   0.2727273   0.4545455), wk =   0.0077783
        k(  169) = (   0.2352941   0.3636364   0.0000000), wk =   0.0038892
        k(  170) = (   0.2352941   0.3636364   0.0909091), wk =   0.0077783
        k(  171) = (   0.2352941   0.3636364   0.1818182), wk =   0.0077783
        k(  172) = (   0.2352941   0.3636364   0.2727273), wk =   0.0077783
        k(  173) = (   0.2352941   0.3636364   0.3636364), wk =   0.0077783
        k(  174) = (   0.2352941   0.3636364   0.4545455), wk =   0.0077783
        k(  175) = (   0.2352941   0.4545455   0.0000000), wk =   0.0038892
        k(  176) = (   0.2352941   0.4545455   0.0909091), wk =   0.0077783
        k(  177) = (   0.2352941   0.4545455   0.1818182), wk =   0.0077783
        k(  178) = (   0.2352941   0.4545455   0.2727273), wk =   0.0077783
        k(  179) = (   0.2352941   0.4545455   0.3636364), wk =   0.0077783
        k(  180) = (   0.2352941   0.4545455   0.4545455), wk =   0.0077783
        k(  181) = (   0.2941176   0.0000000   0.0000000), wk =   0.0019446
        k(  182) = (   0.2941176   0.0000000   0.0909091), wk =   0.0038892
        k(  183) = (   0.2941176   0.0000000   0.1818182), wk =   0.0038892
        k(  184) = (   0.2941176   0.0000000   0.2727273), wk =   0.0038892
        k(  185) = (   0.2941176   0.0000000   0.3636364), wk =   0.0038892
        k(  186) = (   0.2941176   0.0000000   0.4545455), wk =   0.0038892
        k(  187) = (   0.2941176   0.0909091   0.0000000), wk =   0.0038892
        k(  188) = (   0.2941176   0.0909091   0.0909091), wk =   0.0077783
        k(  189) = (   0.2941176   0.0909091   0.1818182), wk =   0.0077783
        k(  190) = (   0.2941176   0.0909091   0.2727273), wk =   0.0077783
        k(  191) = (   0.2941176   0.0909091   0.3636364), wk =   0.0077783
        k(  192) = (   0.2941176   0.0909091   0.4545455), wk =   0.0077783
        k(  193) = (   0.2941176   0.1818182   0.0000000), wk =   0.0038892
        k(  194) = (   0.2941176   0.1818182   0.0909091), wk =   0.0077783
        k(  195) = (   0.2941176   0.1818182   0.1818182), wk =   0.0077783
        k(  196) = (   0.2941176   0.1818182   0.2727273), wk =   0.0077783
        k(  197) = (   0.2941176   0.1818182   0.3636364), wk =   0.0077783
        k(  198) = (   0.2941176   0.1818182   0.4545455), wk =   0.0077783
        k(  199) = (   0.2941176   0.2727273   0.0000000), wk =   0.0038892
        k(  200) = (   0.2941176   0.2727273   0.0909091), wk =   0.0077783
        k(  201) = (   0.2941176   0.2727273   0.1818182), wk =   0.0077783
        k(  202) = (   0.2941176   0.2727273   0.2727273), wk =   0.0077783
        k(  203) = (   0.2941176   0.2727273   0.3636364), wk =   0.0077783
        k(  204) = (   0.2941176   0.2727273   0.4545455), wk =   0.0077783
        k(  205) = (   0.2941176   0.3636364   0.0000000), wk =   0.0038892
        k(  206) = (   0.2941176   0.3636364   0.0909091), wk =   0.0077783
        k(  207) = (   0.2941176   0.3636364   0.1818182), wk =   0.0077783
        k(  208) = (   0.2941176   0.3636364   0.2727273), wk =   0.0077783
        k(  209) = (   0.2941176   0.3636364   0.3636364), wk =   0.0077783
        k(  210) = (   0.2941176   0.3636364   0.4545455), wk =   0.0077783
        k(  211) = (   0.2941176   0.4545455   0.0000000), wk =   0.0038892
        k(  212) = (   0.2941176   0.4545455   0.0909091), wk =   0.0077783
        k(  213) = (   0.2941176   0.4545455   0.1818182), wk =   0.0077783
        k(  214) = (   0.2941176   0.4545455   0.2727273), wk =   0.0077783
        k(  215) = (   0.2941176   0.4545455   0.3636364), wk =   0.0077783
        k(  216) = (   0.2941176   0.4545455   0.4545455), wk =   0.0077783
        k(  217) = (   0.3529412   0.0000000   0.0000000), wk =   0.0019446
        k(  218) = (   0.3529412   0.0000000   0.0909091), wk =   0.0038892
        k(  219) = (   0.3529412   0.0000000   0.1818182), wk =   0.0038892
        k(  220) = (   0.3529412   0.0000000   0.2727273), wk =   0.0038892
        k(  221) = (   0.3529412   0.0000000   0.3636364), wk =   0.0038892
        k(  222) = (   0.3529412   0.0000000   0.4545455), wk =   0.0038892
        k(  223) = (   0.3529412   0.0909091   0.0000000), wk =   0.0038892
        k(  224) = (   0.3529412   0.0909091   0.0909091), wk =   0.0077783
        k(  225) = (   0.3529412   0.0909091   0.1818182), wk =   0.0077783
        k(  226) = (   0.3529412   0.0909091   0.2727273), wk =   0.0077783
        k(  227) = (   0.3529412   0.0909091   0.3636364), wk =   0.0077783
        k(  228) = (   0.3529412   0.0909091   0.4545455), wk =   0.0077783
        k(  229) = (   0.3529412   0.1818182   0.0000000), wk =   0.0038892
        k(  230) = (   0.3529412   0.1818182   0.0909091), wk =   0.0077783
        k(  231) = (   0.3529412   0.1818182   0.1818182), wk =   0.0077783
        k(  232) = (   0.3529412   0.1818182   0.2727273), wk =   0.0077783
        k(  233) = (   0.3529412   0.1818182   0.3636364), wk =   0.0077783
        k(  234) = (   0.3529412   0.1818182   0.4545455), wk =   0.0077783
        k(  235) = (   0.3529412   0.2727273   0.0000000), wk =   0.0038892
        k(  236) = (   0.3529412   0.2727273   0.0909091), wk =   0.0077783
        k(  237) = (   0.3529412   0.2727273   0.1818182), wk =   0.0077783
        k(  238) = (   0.3529412   0.2727273   0.2727273), wk =   0.0077783
        k(  239) = (   0.3529412   0.2727273   0.3636364), wk =   0.0077783
        k(  240) = (   0.3529412   0.2727273   0.4545455), wk =   0.0077783
        k(  241) = (   0.3529412   0.3636364   0.0000000), wk =   0.0038892
        k(  242) = (   0.3529412   0.3636364   0.0909091), wk =   0.0077783
        k(  243) = (   0.3529412   0.3636364   0.1818182), wk =   0.0077783
        k(  244) = (   0.3529412   0.3636364   0.2727273), wk =   0.0077783
        k(  245) = (   0.3529412   0.3636364   0.3636364), wk =   0.0077783
        k(  246) = (   0.3529412   0.3636364   0.4545455), wk =   0.0077783
        k(  247) = (   0.3529412   0.4545455   0.0000000), wk =   0.0038892
        k(  248) = (   0.3529412   0.4545455   0.0909091), wk =   0.0077783
        k(  249) = (   0.3529412   0.4545455   0.1818182), wk =   0.0077783
        k(  250) = (   0.3529412   0.4545455   0.2727273), wk =   0.0077783
        k(  251) = (   0.3529412   0.4545455   0.3636364), wk =   0.0077783
        k(  252) = (   0.3529412   0.4545455   0.4545455), wk =   0.0077783
        k(  253) = (   0.4117647   0.0000000   0.0000000), wk =   0.0019446
        k(  254) = (   0.4117647   0.0000000   0.0909091), wk =   0.0038892
        k(  255) = (   0.4117647   0.0000000   0.1818182), wk =   0.0038892
        k(  256) = (   0.4117647   0.0000000   0.2727273), wk =   0.0038892
        k(  257) = (   0.4117647   0.0000000   0.3636364), wk =   0.0038892
        k(  258) = (   0.4117647   0.0000000   0.4545455), wk =   0.0038892
        k(  259) = (   0.4117647   0.0909091   0.0000000), wk =   0.0038892
        k(  260) = (   0.4117647   0.0909091   0.0909091), wk =   0.0077783
        k(  261) = (   0.4117647   0.0909091   0.1818182), wk =   0.0077783
        k(  262) = (   0.4117647   0.0909091   0.2727273), wk =   0.0077783
        k(  263) = (   0.4117647   0.0909091   0.3636364), wk =   0.0077783
        k(  264) = (   0.4117647   0.0909091   0.4545455), wk =   0.0077783
        k(  265) = (   0.4117647   0.1818182   0.0000000), wk =   0.0038892
        k(  266) = (   0.4117647   0.1818182   0.0909091), wk =   0.0077783
        k(  267) = (   0.4117647   0.1818182   0.1818182), wk =   0.0077783
        k(  268) = (   0.4117647   0.1818182   0.2727273), wk =   0.0077783
        k(  269) = (   0.4117647   0.1818182   0.3636364), wk =   0.0077783
        k(  270) = (   0.4117647   0.1818182   0.4545455), wk =   0.0077783
        k(  271) = (   0.4117647   0.2727273   0.0000000), wk =   0.0038892
        k(  272) = (   0.4117647   0.2727273   0.0909091), wk =   0.0077783
        k(  273) = (   0.4117647   0.2727273   0.1818182), wk =   0.0077783
        k(  274) = (   0.4117647   0.2727273   0.2727273), wk =   0.0077783
        k(  275) = (   0.4117647   0.2727273   0.3636364), wk =   0.0077783
        k(  276) = (   0.4117647   0.2727273   0.4545455), wk =   0.0077783
        k(  277) = (   0.4117647   0.3636364   0.0000000), wk =   0.0038892
        k(  278) = (   0.4117647   0.3636364   0.0909091), wk =   0.0077783
        k(  279) = (   0.4117647   0.3636364   0.1818182), wk =   0.0077783
        k(  280) = (   0.4117647   0.3636364   0.2727273), wk =   0.0077783
        k(  281) = (   0.4117647   0.3636364   0.3636364), wk =   0.0077783
        k(  282) = (   0.4117647   0.3636364   0.4545455), wk =   0.0077783
        k(  283) = (   0.4117647   0.4545455   0.0000000), wk =   0.0038892
        k(  284) = (   0.4117647   0.4545455   0.0909091), wk =   0.0077783
        k(  285) = (   0.4117647   0.4545455   0.1818182), wk =   0.0077783
        k(  286) = (   0.4117647   0.4545455   0.2727273), wk =   0.0077783
        k(  287) = (   0.4117647   0.4545455   0.3636364), wk =   0.0077783
        k(  288) = (   0.4117647   0.4545455   0.4545455), wk =   0.0077783
        k(  289) = (   0.4705882   0.0000000   0.0000000), wk =   0.0019446
        k(  290) = (   0.4705882   0.0000000   0.0909091), wk =   0.0038892
        k(  291) = (   0.4705882   0.0000000   0.1818182), wk =   0.0038892
        k(  292) = (   0.4705882   0.0000000   0.2727273), wk =   0.0038892
        k(  293) = (   0.4705882   0.0000000   0.3636364), wk =   0.0038892
        k(  294) = (   0.4705882   0.0000000   0.4545455), wk =   0.0038892
        k(  295) = (   0.4705882   0.0909091   0.0000000), wk =   0.0038892
        k(  296) = (   0.4705882   0.0909091   0.0909091), wk =   0.0077783
        k(  297) = (   0.4705882   0.0909091   0.1818182), wk =   0.0077783
        k(  298) = (   0.4705882   0.0909091   0.2727273), wk =   0.0077783
        k(  299) = (   0.4705882   0.0909091   0.3636364), wk =   0.0077783
        k(  300) = (   0.4705882   0.0909091   0.4545455), wk =   0.0077783
        k(  301) = (   0.4705882   0.1818182   0.0000000), wk =   0.0038892
        k(  302) = (   0.4705882   0.1818182   0.0909091), wk =   0.0077783
        k(  303) = (   0.4705882   0.1818182   0.1818182), wk =   0.0077783
        k(  304) = (   0.4705882   0.1818182   0.2727273), wk =   0.0077783
        k(  305) = (   0.4705882   0.1818182   0.3636364), wk =   0.0077783
        k(  306) = (   0.4705882   0.1818182   0.4545455), wk =   0.0077783
        k(  307) = (   0.4705882   0.2727273   0.0000000), wk =   0.0038892
        k(  308) = (   0.4705882   0.2727273   0.0909091), wk =   0.0077783
        k(  309) = (   0.4705882   0.2727273   0.1818182), wk =   0.0077783
        k(  310) = (   0.4705882   0.2727273   0.2727273), wk =   0.0077783
        k(  311) = (   0.4705882   0.2727273   0.3636364), wk =   0.0077783
        k(  312) = (   0.4705882   0.2727273   0.4545455), wk =   0.0077783
        k(  313) = (   0.4705882   0.3636364   0.0000000), wk =   0.0038892
        k(  314) = (   0.4705882   0.3636364   0.0909091), wk =   0.0077783
        k(  315) = (   0.4705882   0.3636364   0.1818182), wk =   0.0077783
        k(  316) = (   0.4705882   0.3636364   0.2727273), wk =   0.0077783
        k(  317) = (   0.4705882   0.3636364   0.3636364), wk =   0.0077783
        k(  318) = (   0.4705882   0.3636364   0.4545455), wk =   0.0077783
        k(  319) = (   0.4705882   0.4545455   0.0000000), wk =   0.0038892
        k(  320) = (   0.4705882   0.4545455   0.0909091), wk =   0.0077783
        k(  321) = (   0.4705882   0.4545455   0.1818182), wk =   0.0077783
        k(  322) = (   0.4705882   0.4545455   0.2727273), wk =   0.0077783
        k(  323) = (   0.4705882   0.4545455   0.3636364), wk =   0.0077783
        k(  324) = (   0.4705882   0.4545455   0.4545455), wk =   0.0077783

     Dense  grid:    79209 G-vectors     FFT dimensions: (  48,  64,  64)

     Smooth grid:    27973 G-vectors     FFT dimensions: (  30,  48,  48)

     Dynamical RAM for                 wfc:       0.95 MB

     Dynamical RAM for     wfc (w. buffer):       0.95 MB

     Dynamical RAM for           str. fact:       0.60 MB

     Dynamical RAM for           local pot:       0.00 MB

     Dynamical RAM for          nlocal pot:       0.91 MB

     Dynamical RAM for                qrad:       3.52 MB

     Dynamical RAM for          rho,v,vnew:       2.03 MB

     Dynamical RAM for           G-vectors:       1.19 MB

     Dynamical RAM for          h,s,v(r/c):       0.92 MB

     Dynamical RAM for          <psi|beta>:       0.07 MB

     Dynamical RAM for                 psi:       1.89 MB

     Dynamical RAM for                hpsi:       1.89 MB

     Dynamical RAM for                spsi:       1.89 MB

     Dynamical RAM for      wfcinit/wfcrot:       2.01 MB

     Dynamical RAM for           addusdens:      57.41 MB

     Estimated static dynamical RAM per process >      11.97 MB

     Estimated max dynamical RAM per process >      69.39 MB

     Estimated total dynamical RAM >     277.54 MB

     Check: negative core charge=   -0.000006

     The potential is recalculated from file :
     ./pwscf.save/charge-density

     Starting wfcs are   42 randomized atomic wfcs +   29 random wfcs

     Band Structure Calculation
     Davidson diagonalization with overlap

     Computing kpt #:     1  of   324
     total cpu time spent up to now is        6.3 secs

     Computing kpt #:     2  of   324
     total cpu time spent up to now is       10.9 secs

     Computing kpt #:     3  of   324
     total cpu time spent up to now is       14.9 secs

     Computing kpt #:     4  of   324
     total cpu time spent up to now is       20.5 secs

     Computing kpt #:     5  of   324
     total cpu time spent up to now is       26.4 secs

     Computing kpt #:     6  of   324
     total cpu time spent up to now is       30.5 secs

     Computing kpt #:     7  of   324
     total cpu time spent up to now is       35.0 secs

     Computing kpt #:     8  of   324
     total cpu time spent up to now is       39.0 secs

     Computing kpt #:     9  of   324
     total cpu time spent up to now is       44.3 secs

     Computing kpt #:    10  of   324
     total cpu time spent up to now is       48.6 secs

     Computing kpt #:    11  of   324
     total cpu time spent up to now is       53.4 secs

     Computing kpt #:    12  of   324
     total cpu time spent up to now is       57.6 secs

     Computing kpt #:    13  of   324
     total cpu time spent up to now is       62.1 secs

     Computing kpt #:    14  of   324
     total cpu time spent up to now is       66.5 secs

     Computing kpt #:    15  of   324
     total cpu time spent up to now is       71.3 secs

     Computing kpt #:    16  of   324
     total cpu time spent up to now is       75.6 secs

     Computing kpt #:    17  of   324
     total cpu time spent up to now is       79.7 secs

     Computing kpt #:    18  of   324
     total cpu time spent up to now is       83.8 secs

     Computing kpt #:    19  of   324
     total cpu time spent up to now is       88.0 secs

     Computing kpt #:    20  of   324
     total cpu time spent up to now is       92.4 secs

     Computing kpt #:    21  of   324
     total cpu time spent up to now is       97.5 secs

     Computing kpt #:    22  of   324
     total cpu time spent up to now is      101.5 secs

     Computing kpt #:    23  of   324
     total cpu time spent up to now is      105.5 secs

     Computing kpt #:    24  of   324
     total cpu time spent up to now is      109.4 secs

     Computing kpt #:    25  of   324
     total cpu time spent up to now is      115.0 secs

     Computing kpt #:    26  of   324
     total cpu time spent up to now is      119.9 secs

     Computing kpt #:    27  of   324
     total cpu time spent up to now is      124.0 secs

     Computing kpt #:    28  of   324
     total cpu time spent up to now is      127.8 secs

     Computing kpt #:    29  of   324
     total cpu time spent up to now is      131.8 secs

     Computing kpt #:    30  of   324
     total cpu time spent up to now is      136.0 secs

     Computing kpt #:    31  of   324
     total cpu time spent up to now is      140.9 secs

     Computing kpt #:    32  of   324
     total cpu time spent up to now is      144.9 secs

     Computing kpt #:    33  of   324
     total cpu time spent up to now is      149.0 secs

     Computing kpt #:    34  of   324
     total cpu time spent up to now is      153.0 secs

     Computing kpt #:    35  of   324
     total cpu time spent up to now is      158.4 secs

     Computing kpt #:    36  of   324
     total cpu time spent up to now is      165.4 secs

     Computing kpt #:    37  of   324
     total cpu time spent up to now is      171.2 secs

     Computing kpt #:    38  of   324
     total cpu time spent up to now is      176.4 secs

     Computing kpt #:    39  of   324
     total cpu time spent up to now is      181.1 secs

     Computing kpt #:    40  of   324
     total cpu time spent up to now is      186.3 secs

     Computing kpt #:    41  of   324
     total cpu time spent up to now is      190.7 secs

     Computing kpt #:    42  of   324
     total cpu time spent up to now is      195.1 secs

     Computing kpt #:    43  of   324
     total cpu time spent up to now is      199.7 secs

     Computing kpt #:    44  of   324
     total cpu time spent up to now is      204.4 secs

     Computing kpt #:    45  of   324
     total cpu time spent up to now is      210.1 secs

     Computing kpt #:    46  of   324
     total cpu time spent up to now is      216.1 secs

     Computing kpt #:    47  of   324
     total cpu time spent up to now is      220.2 secs

     Computing kpt #:    48  of   324
     total cpu time spent up to now is      224.5 secs

     Computing kpt #:    49  of   324
     total cpu time spent up to now is      229.3 secs

     Computing kpt #:    50  of   324
     total cpu time spent up to now is      233.9 secs

     Computing kpt #:    51  of   324
     total cpu time spent up to now is      238.7 secs

     Computing kpt #:    52  of   324
     total cpu time spent up to now is      242.8 secs

     Computing kpt #:    53  of   324
     total cpu time spent up to now is      246.8 secs

     Computing kpt #:    54  of   324
     total cpu time spent up to now is      251.0 secs

     Computing kpt #:    55  of   324
     total cpu time spent up to now is      255.6 secs

     Computing kpt #:    56  of   324
     total cpu time spent up to now is      260.2 secs

     Computing kpt #:    57  of   324
     total cpu time spent up to now is      264.3 secs

     Computing kpt #:    58  of   324
     total cpu time spent up to now is      268.4 secs

     Computing kpt #:    59  of   324
     total cpu time spent up to now is      272.4 secs

     Computing kpt #:    60  of   324
     total cpu time spent up to now is      276.4 secs

     Computing kpt #:    61  of   324
     total cpu time spent up to now is      280.8 secs

     Computing kpt #:    62  of   324
     total cpu time spent up to now is      284.7 secs

     Computing kpt #:    63  of   324
     total cpu time spent up to now is      288.7 secs

     Computing kpt #:    64  of   324
     total cpu time spent up to now is      292.6 secs

     Computing kpt #:    65  of   324
     total cpu time spent up to now is      296.6 secs

     Computing kpt #:    66  of   324
     total cpu time spent up to now is      301.0 secs

     Computing kpt #:    67  of   324
     total cpu time spent up to now is      305.3 secs

     Computing kpt #:    68  of   324
     total cpu time spent up to now is      309.6 secs

     Computing kpt #:    69  of   324
     total cpu time spent up to now is      313.6 secs

     Computing kpt #:    70  of   324
     total cpu time spent up to now is      317.8 secs

     Computing kpt #:    71  of   324
     total cpu time spent up to now is      322.0 secs

     Computing kpt #:    72  of   324
     total cpu time spent up to now is      327.9 secs

     Computing kpt #:    73  of   324
     total cpu time spent up to now is      333.0 secs

     Computing kpt #:    74  of   324
     total cpu time spent up to now is      338.8 secs

     Computing kpt #:    75  of   324
     total cpu time spent up to now is      344.0 secs

     Computing kpt #:    76  of   324
     total cpu time spent up to now is      348.0 secs

     Computing kpt #:    77  of   324
     total cpu time spent up to now is      352.0 secs

     Computing kpt #:    78  of   324
     total cpu time spent up to now is      356.3 secs

     Computing kpt #:    79  of   324
     total cpu time spent up to now is      361.6 secs

     Computing kpt #:    80  of   324
     total cpu time spent up to now is      366.8 secs

     Computing kpt #:    81  of   324
     total cpu time spent up to now is      370.8 secs

     Computing kpt #:    82  of   324
     total cpu time spent up to now is      375.0 secs

     Computing kpt #:    83  of   324
     total cpu time spent up to now is      379.2 secs

     Computing kpt #:    84  of   324
     total cpu time spent up to now is      383.4 secs

     Computing kpt #:    85  of   324
     total cpu time spent up to now is      388.4 secs

     Computing kpt #:    86  of   324
     total cpu time spent up to now is      393.0 secs

     Computing kpt #:    87  of   324
     total cpu time spent up to now is      397.0 secs

     Computing kpt #:    88  of   324
     total cpu time spent up to now is      401.1 secs

     Computing kpt #:    89  of   324
     total cpu time spent up to now is      405.3 secs

     Computing kpt #:    90  of   324
     total cpu time spent up to now is      409.5 secs

     Computing kpt #:    91  of   324
     total cpu time spent up to now is      413.6 secs

     Computing kpt #:    92  of   324
     total cpu time spent up to now is      417.8 secs

     Computing kpt #:    93  of   324
     total cpu time spent up to now is      421.6 secs

     Computing kpt #:    94  of   324
     total cpu time spent up to now is      425.7 secs

     Computing kpt #:    95  of   324
     total cpu time spent up to now is      430.3 secs

     Computing kpt #:    96  of   324
     total cpu time spent up to now is      434.5 secs

     Computing kpt #:    97  of   324
     total cpu time spent up to now is      438.8 secs

     Computing kpt #:    98  of   324
     total cpu time spent up to now is      442.9 secs

     Computing kpt #:    99  of   324
     total cpu time spent up to now is      447.1 secs

     Computing kpt #:   100  of   324
     total cpu time spent up to now is      451.3 secs

     Computing kpt #:   101  of   324
     total cpu time spent up to now is      455.4 secs

     Computing kpt #:   102  of   324
     total cpu time spent up to now is      459.4 secs

     Computing kpt #:   103  of   324
     total cpu time spent up to now is      465.8 secs

     Computing kpt #:   104  of   324
     total cpu time spent up to now is      469.9 secs

     Computing kpt #:   105  of   324
     total cpu time spent up to now is      474.1 secs

     Computing kpt #:   106  of   324
     total cpu time spent up to now is      478.1 secs

     Computing kpt #:   107  of   324
     total cpu time spent up to now is      482.7 secs

     Computing kpt #:   108  of   324
     total cpu time spent up to now is      488.1 secs

     Computing kpt #:   109  of   324
     total cpu time spent up to now is      492.5 secs

     Computing kpt #:   110  of   324
     total cpu time spent up to now is      496.6 secs

     Computing kpt #:   111  of   324
     total cpu time spent up to now is      500.5 secs

     Computing kpt #:   112  of   324
     total cpu time spent up to now is      504.2 secs

     Computing kpt #:   113  of   324
     total cpu time spent up to now is      508.1 secs

     Computing kpt #:   114  of   324
     total cpu time spent up to now is      512.2 secs

     Computing kpt #:   115  of   324
     total cpu time spent up to now is      516.4 secs

     Computing kpt #:   116  of   324
     total cpu time spent up to now is      520.4 secs

     Computing kpt #:   117  of   324
     total cpu time spent up to now is      524.1 secs

     Computing kpt #:   118  of   324
     total cpu time spent up to now is      528.1 secs

     Computing kpt #:   119  of   324
     total cpu time spent up to now is      532.1 secs

     Computing kpt #:   120  of   324
     total cpu time spent up to now is      536.5 secs

     Computing kpt #:   121  of   324
     total cpu time spent up to now is      540.9 secs

     Computing kpt #:   122  of   324
     total cpu time spent up to now is      545.0 secs

     Computing kpt #:   123  of   324
     total cpu time spent up to now is      549.0 secs

     Computing kpt #:   124  of   324
     total cpu time spent up to now is      553.0 secs

     Computing kpt #:   125  of   324
     total cpu time spent up to now is      556.8 secs

     Computing kpt #:   126  of   324
     total cpu time spent up to now is      560.9 secs

     Computing kpt #:   127  of   324
     total cpu time spent up to now is      564.9 secs

     Computing kpt #:   128  of   324
     total cpu time spent up to now is      568.9 secs

     Computing kpt #:   129  of   324
     total cpu time spent up to now is      572.7 secs

     Computing kpt #:   130  of   324
     total cpu time spent up to now is      577.0 secs

     Computing kpt #:   131  of   324
     total cpu time spent up to now is      581.0 secs

     Computing kpt #:   132  of   324
     total cpu time spent up to now is      585.0 secs

     Computing kpt #:   133  of   324
     total cpu time spent up to now is      589.4 secs

     Computing kpt #:   134  of   324
     total cpu time spent up to now is      593.2 secs

     Computing kpt #:   135  of   324
     total cpu time spent up to now is      597.7 secs

     Computing kpt #:   136  of   324
     total cpu time spent up to now is      601.8 secs

     Computing kpt #:   137  of   324
     total cpu time spent up to now is      605.9 secs

     Computing kpt #:   138  of   324
     total cpu time spent up to now is      610.5 secs

     Computing kpt #:   139  of   324
     total cpu time spent up to now is      614.5 secs

     Computing kpt #:   140  of   324
     total cpu time spent up to now is      618.7 secs

     Computing kpt #:   141  of   324
     total cpu time spent up to now is      622.9 secs

     Computing kpt #:   142  of   324
     total cpu time spent up to now is      627.7 secs

     Computing kpt #:   143  of   324
     total cpu time spent up to now is      632.3 secs

     Computing kpt #:   144  of   324
     total cpu time spent up to now is      637.2 secs

     Computing kpt #:   145  of   324
     total cpu time spent up to now is      641.2 secs

     Computing kpt #:   146  of   324
     total cpu time spent up to now is      645.5 secs

     Computing kpt #:   147  of   324
     total cpu time spent up to now is      649.4 secs

     Computing kpt #:   148  of   324
     total cpu time spent up to now is      653.5 secs

     Computing kpt #:   149  of   324
     total cpu time spent up to now is      657.6 secs

     Computing kpt #:   150  of   324
     total cpu time spent up to now is      663.4 secs

     Computing kpt #:   151  of   324
     total cpu time spent up to now is      669.0 secs

     Computing kpt #:   152  of   324
     total cpu time spent up to now is      673.0 secs

     Computing kpt #:   153  of   324
     total cpu time spent up to now is      676.9 secs

     Computing kpt #:   154  of   324
     total cpu time spent up to now is      681.0 secs

     Computing kpt #:   155  of   324
     total cpu time spent up to now is      684.8 secs

     Computing kpt #:   156  of   324
     total cpu time spent up to now is      689.3 secs

     Computing kpt #:   157  of   324
     total cpu time spent up to now is      694.4 secs

     Computing kpt #:   158  of   324
     total cpu time spent up to now is      698.2 secs

     Computing kpt #:   159  of   324
     total cpu time spent up to now is      702.2 secs

     Computing kpt #:   160  of   324
     total cpu time spent up to now is      706.3 secs

     Computing kpt #:   161  of   324
     total cpu time spent up to now is      710.4 secs

     Computing kpt #:   162  of   324
     total cpu time spent up to now is      716.0 secs

     Computing kpt #:   163  of   324
     total cpu time spent up to now is      719.8 secs

     Computing kpt #:   164  of   324
     total cpu time spent up to now is      724.1 secs

     Computing kpt #:   165  of   324
     total cpu time spent up to now is      727.9 secs

     Computing kpt #:   166  of   324
     total cpu time spent up to now is      731.9 secs

     Computing kpt #:   167  of   324
     total cpu time spent up to now is      737.0 secs

     Computing kpt #:   168  of   324
     total cpu time spent up to now is      742.1 secs

     Computing kpt #:   169  of   324
     total cpu time spent up to now is      746.1 secs

     Computing kpt #:   170  of   324
     total cpu time spent up to now is      750.1 secs

     Computing kpt #:   171  of   324
     total cpu time spent up to now is      756.6 secs

     Computing kpt #:   172  of   324
     total cpu time spent up to now is      760.7 secs

     Computing kpt #:   173  of   324
     total cpu time spent up to now is      765.2 secs

     Computing kpt #:   174  of   324
     total cpu time spent up to now is      770.4 secs

     Computing kpt #:   175  of   324
     total cpu time spent up to now is      776.2 secs

     Computing kpt #:   176  of   324
     total cpu time spent up to now is      780.3 secs

     Computing kpt #:   177  of   324
     total cpu time spent up to now is      785.8 secs

     Computing kpt #:   178  of   324
     total cpu time spent up to now is      791.5 secs

     Computing kpt #:   179  of   324
     total cpu time spent up to now is      796.5 secs

     Computing kpt #:   180  of   324
     total cpu time spent up to now is      802.0 secs

     Computing kpt #:   181  of   324
     total cpu time spent up to now is      806.2 secs

     Computing kpt #:   182  of   324
     total cpu time spent up to now is      810.6 secs

     Computing kpt #:   183  of   324
     total cpu time spent up to now is      814.8 secs

     Computing kpt #:   184  of   324
     total cpu time spent up to now is      818.9 secs

     Computing kpt #:   185  of   324
     total cpu time spent up to now is      824.0 secs

     Computing kpt #:   186  of   324
     total cpu time spent up to now is      829.2 secs

     Computing kpt #:   187  of   324
     total cpu time spent up to now is      833.2 secs

     Computing kpt #:   188  of   324
     total cpu time spent up to now is      837.5 secs

     Computing kpt #:   189  of   324
     total cpu time spent up to now is      841.7 secs

     Computing kpt #:   190  of   324
     total cpu time spent up to now is      845.8 secs

     Computing kpt #:   191  of   324
     total cpu time spent up to now is      850.2 secs

     Computing kpt #:   192  of   324
     total cpu time spent up to now is      855.1 secs

     Computing kpt #:   193  of   324
     total cpu time spent up to now is      859.6 secs

     Computing kpt #:   194  of   324
     total cpu time spent up to now is      863.8 secs

     Computing kpt #:   195  of   324
     total cpu time spent up to now is      867.8 secs

     Computing kpt #:   196  of   324
     total cpu time spent up to now is      872.0 secs

     Computing kpt #:   197  of   324
     total cpu time spent up to now is      876.9 secs

     Computing kpt #:   198  of   324
     total cpu time spent up to now is      882.0 secs

     Computing kpt #:   199  of   324
     total cpu time spent up to now is      886.1 secs

     Computing kpt #:   200  of   324
     total cpu time spent up to now is      890.4 secs

     Computing kpt #:   201  of   324
     total cpu time spent up to now is      894.5 secs

     Computing kpt #:   202  of   324
     total cpu time spent up to now is      898.5 secs

     Computing kpt #:   203  of   324
     total cpu time spent up to now is      904.0 secs

     Computing kpt #:   204  of   324
     total cpu time spent up to now is      910.0 secs

     Computing kpt #:   205  of   324
     total cpu time spent up to now is      914.1 secs

     Computing kpt #:   206  of   324
     total cpu time spent up to now is      918.5 secs

     Computing kpt #:   207  of   324
     total cpu time spent up to now is      923.6 secs

     Computing kpt #:   208  of   324
     total cpu time spent up to now is      933.0 secs

     Computing kpt #:   209  of   324
     total cpu time spent up to now is      938.6 secs

     Computing kpt #:   210  of   324
[...]
     0.0000   0.0000   0.0000   0.0000   0.0000   0.0000   0.0000

          k = 0.4706 0.2442 0.0000 (  3496 PWs)   bands (ev):

   -95.4527 -95.4527 -55.9817 -55.9817 -55.8576 -55.8576 -55.7900 -55.7899
   -16.3322 -16.2861 -16.1742 -16.1595   0.4191   0.4784   0.7769   0.8202
     1.3748   1.4658   1.7133   1.8076   2.6212   2.6431   3.1792   3.2488
     6.3347   6.3611   6.5461   6.5649   6.8167   6.8172   7.0606   7.0857
     8.1629   8.2057  15.6831  16.3269  17.1052  17.5720  20.3389  20.3651
    20.6753  20.7257  21.6247  21.9559  22.6661  23.0925  26.2728  26.4830
    30.8567  30.8835  31.4730  31.7390  33.0002  33.5007  34.3990  34.9728
    36.3966  36.4467  36.9254  37.7511  39.3223  39.6499  40.5232  40.9280
    42.0302  42.1264  43.8465  44.0840  45.2943  45.6176  46.1713

     occupation numbers 
     1.0000   1.0000   1.0000   1.0000   1.0000   1.0000   1.0000   1.0000
     1.0000   1.0000   1.0000   1.0000   1.0000   1.0000   1.0000   1.0000
     1.0000   1.0000   1.0000   1.0000   1.0000   1.0000   1.0000   1.0000
     1.0000   1.0000   1.0000   1.0000   1.0000   1.0000   1.0000   1.0000
     0.0000   0.0000   0.0000   0.0000   0.0000   0.0000   0.0000   0.0000
     0.0000   0.0000   0.0000   0.0000   0.0000   0.0000   0.0000   0.0000
     0.0000   0.0000   0.0000   0.0000   0.0000   0.0000   0.0000   0.0000
     0.0000   0.0000   0.0000   0.0000   0.0000   0.0000   0.0000   0.0000
     0.0000   0.0000   0.0000   0.0000   0.0000   0.0000   0.0000

          k = 0.4706 0.2442 0.0599 (  3494 PWs)   bands (ev):

   -95.4527 -95.4527 -55.9817 -55.9817 -55.8576 -55.8576 -55.7900 -55.7899
   -16.3328 -16.2853 -16.1780 -16.1550   0.3027   0.4740   0.7858   0.8590
     1.3068   1.5763   1.6818   1.8147   2.6271   2.7131   3.1811   3.2577
     6.3225   6.3917   6.5468   6.5652   6.7905   6.8285   7.0449   7.1313
     8.0833   8.2412  15.6858  16.3583  17.0596  17.6225  19.7183  20.1534
    20.7782  20.9639  21.5223  22.2762  22.8618  23.3400  26.0168  26.8097
    30.3069  30.6655  31.7187  32.0048  32.4798  33.5984  34.7078  34.9511
    35.9804  36.6956  37.4038  37.9266  38.5859  39.5823  40.2865  41.3327
    42.2291  42.6052  43.7882  44.0726  44.7539  45.3892  46.1804

     occupation numbers 
     1.0000   1.0000   1.0000   1.0000   1.0000   1.0000   1.0000   1.0000
     1.0000   1.0000   1.0000   1.0000   1.0000   1.0000   1.0000   1.0000
     1.0000   1.0000   1.0000   1.0000   1.0000   1.0000   1.0000   1.0000
     1.0000   1.0000   1.0000   1.0000   1.0000   1.0000   1.0000   1.0000
     0.0000   0.0000   0.0000   0.0000   0.0000   0.0000   0.0000   0.0000
     0.0000   0.0000   0.0000   0.0000   0.0000   0.0000   0.0000   0.0000
     0.0000   0.0000   0.0000   0.0000   0.0000   0.0000   0.0000   0.0000
     0.0000   0.0000   0.0000   0.0000   0.0000   0.0000   0.0000   0.0000
     0.0000   0.0000   0.0000   0.0000   0.0000   0.0000   0.0000

          k = 0.4706 0.2442 0.1197 (  3497 PWs)   bands (ev):

   -95.4527 -95.4527 -55.9817 -55.9817 -55.8576 -55.8576 -55.7900 -55.7899
   -16.3334 -16.2853 -16.1815 -16.1489   0.1473   0.3615   0.7809   0.9002
     1.3241   1.6356   1.6986   1.8072   2.7172   2.8273   3.1862   3.2788
     6.3195   6.4487   6.5491   6.5660   6.7384   6.8407   7.0343   7.2265
     7.9536   8.2436  15.7008  16.4352  16.9553  17.7467  19.1739  19.5882
    20.4429  20.8034  21.9728  22.9270  23.3412  23.8663  25.7292  27.3110
    29.7352  29.8736  31.5453  32.1950  32.2363  33.6700  34.3453  35.3517
    36.3588  36.8229  37.6126  37.9886  38.5485  38.8988  40.4420  41.1061
    42.8976  43.2711  43.6784  43.9917  44.2452  45.5128  46.0547

     occupation numbers 
     1.0000   1.0000   1.0000   1.0000   1.0000   1.0000   1.0000   1.0000
     1.0000   1.0000   1.0000   1.0000   1.0000   1.0000   1.0000   1.0000
     1.0000   1.0000   1.0000   1.0000   1.0000   1.0000   1.0000   1.0000
     1.0000   1.0000   1.0000   1.0000   1.0000   1.0000   1.0000   1.0000
     0.0000   0.0000   0.0000   0.0000   0.0000   0.0000   0.0000   0.0000
     0.0000   0.0000   0.0000   0.0000   0.0000   0.0000   0.0000   0.0000
     0.0000   0.0000   0.0000   0.0000   0.0000   0.0000   0.0000   0.0000
     0.0000   0.0000   0.0000   0.0000   0.0000   0.0000   0.0000   0.0000
     0.0000   0.0000   0.0000   0.0000   0.0000   0.0000   0.0000

          k = 0.4706 0.2442 0.1796 (  3495 PWs)   bands (ev):

   -95.4527 -95.4527 -55.9817 -55.9817 -55.8576 -55.8576 -55.7900 -55.7899
   -16.3319 -16.2896 -16.1790 -16.1458   0.0220   0.2092   0.7651   0.8668
     1.4494   1.6109   1.7133   1.8396   2.8647   2.9463   3.1916   3.2989
     6.3340   6.5192   6.5526   6.5662   6.6664   6.8465   7.0460   7.3477
     7.8120   8.1953  15.7426  16.4687  16.8968  17.8977  18.7153  19.1877
    20.0034  20.3709  22.6061  23.5300  23.9989  24.4393  25.5560  27.9116
    29.0173  29.2566  30.6263  31.9654  32.6088  33.2015  34.6979  35.8624
    35.9590  36.9730  37.9825  38.2138  38.3539  39.0628  40.4584  40.9816
    42.3518  43.0991  43.9649  44.2961  44.6257  45.7789  45.8057

     occupation numbers 
     1.0000   1.0000   1.0000   1.0000   1.0000   1.0000   1.0000   1.0000
     1.0000   1.0000   1.0000   1.0000   1.0000   1.0000   1.0000   1.0000
     1.0000   1.0000   1.0000   1.0000   1.0000   1.0000   1.0000   1.0000
     1.0000   1.0000   1.0000   1.0000   1.0000   1.0000   1.0000   1.0000
     0.0063   0.0000   0.0000   0.0000   0.0000   0.0000   0.0000   0.0000
     0.0000   0.0000   0.0000   0.0000   0.0000   0.0000   0.0000   0.0000
     0.0000   0.0000   0.0000   0.0000   0.0000   0.0000   0.0000   0.0000
     0.0000   0.0000   0.0000   0.0000   0.0000   0.0000   0.0000   0.0000
     0.0000   0.0000   0.0000   0.0000   0.0000   0.0000   0.0000

          k = 0.4706 0.2442 0.2395 (  3501 PWs)   bands (ev):

   -95.4527 -95.4527 -55.9817 -55.9817 -55.8577 -55.8576 -55.7900 -55.7900
   -16.3273 -16.2984 -16.1711 -16.1469  -0.0534   0.0704   0.7517   0.8135
     1.5509   1.6305   1.6891   1.8711   3.0112   3.0549   3.1924   3.3004
     6.3675   6.5521   6.5630   6.5726   6.6173   6.8208   7.1071   7.4237
     7.7309   8.0989  15.8251  16.3349  17.0325  17.9220  18.4504  18.9841
    19.6331  19.9572  23.1486  23.9349  24.6136  24.7444  25.8667  28.2059
    28.6040  28.9058  29.7378  31.1898  32.8730  33.0901  35.0348  35.5325
    36.3525  36.9756  37.7507  38.3838  38.8617  39.3087  40.1864  41.4834
    41.7356  42.5709  43.9380  44.1763  45.2975  45.9540  46.2451

     occupation numbers 
     1.0000   1.0000   1.0000   1.0000   1.0000   1.0000   1.0000   1.0000
     1.0000   1.0000   1.0000   1.0000   1.0000   1.0000   1.0000   1.0000
     1.0000   1.0000   1.0000   1.0000   1.0000   1.0000   1.0000   1.0000
     1.0000   1.0000   1.0000   1.0000   1.0000   1.0000   1.0000   1.0000
     0.2736   0.0000   0.0000   0.0000   0.0000   0.0000   0.0000   0.0000
     0.0000   0.0000   0.0000   0.0000   0.0000   0.0000   0.0000   0.0000
     0.0000   0.0000   0.0000   0.0000   0.0000   0.0000   0.0000   0.0000
     0.0000   0.0000   0.0000   0.0000   0.0000   0.0000   0.0000   0.0000
     0.0000   0.0000   0.0000   0.0000   0.0000   0.0000   0.0000

          k = 0.4706 0.2442 0.2993 (  3501 PWs)   bands (ev):

   -95.4527 -95.4527 -55.9817 -55.9817 -55.8577 -55.8576 -55.7900 -55.7900
   -16.3194 -16.3092 -16.1612 -16.1524  -0.0705  -0.0275   0.7519   0.7722
     1.5796   1.6088   1.7745   1.8491   3.1020   3.1308   3.2068   3.2678
     6.4204   6.4897   6.5629   6.5659   6.6889   6.7634   7.2158   7.3454
     7.8172   7.9648  15.9568  16.1355  17.2990  17.6306  18.5819  18.8144
    19.4886  19.6354  23.5924  23.9179  24.9019  24.9442  26.6387  27.4451
    28.7688  29.0425  29.3930  30.2667  33.0389  33.0991  35.1310  35.2467
    36.7503  37.2403  37.5945  38.2251  39.0450  39.1354  40.7856  41.2774
    41.7621  42.1804  43.8570  43.9870  45.8933  46.1250  46.3321

     occupation numbers 
     1.0000   1.0000   1.0000   1.0000   1.0000   1.0000   1.0000   1.0000
     1.0000   1.0000   1.0000   1.0000   1.0000   1.0000   1.0000   1.0000
     1.0000   1.0000   1.0000   1.0000   1.0000   1.0000   1.0000   1.0000
     1.0000   1.0000   1.0000   1.0000   1.0000   1.0000   1.0000   1.0000
     0.0045   0.0000   0.0000   0.0000   0.0000   0.0000   0.0000   0.0000
     0.0000   0.0000   0.0000   0.0000   0.0000   0.0000   0.0000   0.0000
     0.0000   0.0000   0.0000   0.0000   0.0000   0.0000   0.0000   0.0000
     0.0000   0.0000   0.0000   0.0000   0.0000   0.0000   0.0000   0.0000
     0.0000   0.0000   0.0000   0.0000   0.0000   0.0000   0.0000

          k = 0.4706 0.3053 0.0000 (  3509 PWs)   bands (ev):

   -95.4527 -95.4527 -55.9817 -55.9817 -55.8576 -55.8576 -55.7900 -55.7899
   -16.3027 -16.2839 -16.1867 -16.1786   0.4069   0.4260   0.8078   0.8259
     1.3860   1.4233   1.7340   1.7716   2.6144   2.6194   3.2776   3.3034
     6.2985   6.3080   6.5541   6.5606   6.8105   6.8108   7.0495   7.0589
     8.2474   8.2627  16.0546  16.4436  16.7852  17.1145  20.5734  20.6392
    20.7065  20.8518  21.2926  21.4873  22.7625  22.9206  26.8268  26.9060
    30.8599  30.9086  31.4622  31.5034  33.6251  33.6879  33.9063  34.3049
    36.0176  36.0933  36.8470  37.1640  39.6054  39.7901  40.4236  40.6149
    42.3733  42.4341  43.8139  44.0073  45.3251  45.6579  46.3177

     occupation numbers 
     1.0000   1.0000   1.0000   1.0000   1.0000   1.0000   1.0000   1.0000
     1.0000   1.0000   1.0000   1.0000   1.0000   1.0000   1.0000   1.0000
     1.0000   1.0000   1.0000   1.0000   1.0000   1.0000   1.0000   1.0000
     1.0000   1.0000   1.0000   1.0000   1.0000   1.0000   1.0000   1.0000
     0.0000   0.0000   0.0000   0.0000   0.0000   0.0000   0.0000   0.0000
     0.0000   0.0000   0.0000   0.0000   0.0000   0.0000   0.0000   0.0000
     0.0000   0.0000   0.0000   0.0000   0.0000   0.0000   0.0000   0.0000
     0.0000   0.0000   0.0000   0.0000   0.0000   0.0000   0.0000   0.0000
     0.0000   0.0000   0.0000   0.0000   0.0000   0.0000   0.0000

          k = 0.4706 0.3053 0.0599 (  3493 PWs)   bands (ev):

   -95.4527 -95.4527 -55.9817 -55.9817 -55.8576 -55.8576 -55.7900 -55.7899
   -16.3049 -16.2856 -16.1858 -16.1747   0.3221   0.3806   0.8106   0.8402
     1.4004   1.4970   1.7071   1.7590   2.6460   2.6779   3.2800   3.3078
     6.3032   6.3271   6.5548   6.5612   6.8059   6.8151   7.0494   7.0751
     8.2014   8.2562  16.0387  16.4198  16.8180  17.1630  20.0035  20.2380
    20.6339  20.7935  21.6812  22.0019  22.9437  23.1333  26.7243  27.0420
    30.5585  30.6397  31.4748  31.6783  32.7222  33.3130  34.5908  34.9934
    35.7833  36.2383  37.1898  37.3766  38.8938  39.2483  40.6739  41.0949
    42.5029  42.6858  43.9520  44.1691  45.1264  45.1725  46.2667

     occupation numbers 
     1.0000   1.0000   1.0000   1.0000   1.0000   1.0000   1.0000   1.0000
     1.0000   1.0000   1.0000   1.0000   1.0000   1.0000   1.0000   1.0000
     1.0000   1.0000   1.0000   1.0000   1.0000   1.0000   1.0000   1.0000
     1.0000   1.0000   1.0000   1.0000   1.0000   1.0000   1.0000   1.0000
     0.0000   0.0000   0.0000   0.0000   0.0000   0.0000   0.0000   0.0000
     0.0000   0.0000   0.0000   0.0000   0.0000   0.0000   0.0000   0.0000
     0.0000   0.0000   0.0000   0.0000   0.0000   0.0000   0.0000   0.0000
     0.0000   0.0000   0.0000   0.0000   0.0000   0.0000   0.0000   0.0000
     0.0000   0.0000   0.0000   0.0000   0.0000   0.0000   0.0000

          k = 0.4706 0.3053 0.1197 (  3495 PWs)   bands (ev):

   -95.4527 -95.4527 -55.9817 -55.9817 -55.8576 -55.8576 -55.7900 -55.7900
   -16.3097 -16.2907 -16.1810 -16.1671   0.1759   0.2510   0.7995   0.8376
     1.4938   1.6176   1.6642   1.7221   2.7554   2.7962   3.2851   3.3176
     6.3273   6.3717   6.5567   6.5624   6.7844   6.8180   7.0641   7.1280
     8.1024   8.2032  16.0037  16.3489  16.9226  17.2872  19.4437  19.6715
    20.2067  20.4106  22.4335  22.8683  23.3560  23.6054  26.6220  27.2497
    29.9952  30.1117  31.1985  31.3574  32.4114  32.9532  34.9697  35.6870
    35.9512  36.4766  37.6291  38.0830  38.2083  38.5330  40.6444  40.9965
    43.1763  43.4634  43.8768  44.1852  44.4853  45.1832  45.9583

     occupation numbers 
     1.0000   1.0000   1.0000   1.0000   1.0000   1.0000   1.0000   1.0000
     1.0000   1.0000   1.0000   1.0000   1.0000   1.0000   1.0000   1.0000
     1.0000   1.0000   1.0000   1.0000   1.0000   1.0000   1.0000   1.0000
     1.0000   1.0000   1.0000   1.0000   1.0000   1.0000   1.0000   1.0000
     0.0000   0.0000   0.0000   0.0000   0.0000   0.0000   0.0000   0.0000
     0.0000   0.0000   0.0000   0.0000   0.0000   0.0000   0.0000   0.0000
     0.0000   0.0000   0.0000   0.0000   0.0000   0.0000   0.0000   0.0000
     0.0000   0.0000   0.0000   0.0000   0.0000   0.0000   0.0000   0.0000
     0.0000   0.0000   0.0000   0.0000   0.0000   0.0000   0.0000

          k = 0.4706 0.3053 0.1796 (  3501 PWs)   bands (ev):

   -95.4527 -95.4527 -55.9817 -55.9817 -55.8576 -55.8576 -55.7900 -55.7900
   -16.3142 -16.2982 -16.1730 -16.1599   0.0398   0.1063   0.7715   0.8023
     1.5950   1.6281   1.6788   1.7631   2.9023   2.9333   3.2870   3.3236
     6.3710   6.4346   6.5590   6.5635   6.7371   6.7997   7.1178   7.2236
     7.9676   8.1030  15.9725  16.2482  17.0876  17.4498  19.0032  19.2509
    19.7229  19.9450  23.1481  23.6614  23.9460  24.1938  26.5721  27.4728
    29.3733  29.5130  30.3230  30.8294  32.6007  32.8348  35.1422  35.5522
    36.4689  37.1921  37.5117  38.0144  38.5466  38.8559  40.6099  40.6364
    42.8566  43.1883  44.0034  44.0151  45.1243  45.5709  45.9371

     occupation numbers 
     1.0000   1.0000   1.0000   1.0000   1.0000   1.0000   1.0000   1.0000
     1.0000   1.0000   1.0000   1.0000   1.0000   1.0000   1.0000   1.0000
     1.0000   1.0000   1.0000   1.0000   1.0000   1.0000   1.0000   1.0000
     1.0000   1.0000   1.0000   1.0000   1.0000   1.0000   1.0000   1.0000
     0.0000   0.0000   0.0000   0.0000   0.0000   0.0000   0.0000   0.0000
     0.0000   0.0000   0.0000   0.0000   0.0000   0.0000   0.0000   0.0000
     0.0000   0.0000   0.0000   0.0000   0.0000   0.0000   0.0000   0.0000
     0.0000   0.0000   0.0000   0.0000   0.0000   0.0000   0.0000   0.0000
     0.0000   0.0000   0.0000   0.0000   0.0000   0.0000   0.0000

          k = 0.4706 0.3053 0.2395 (  3492 PWs)   bands (ev):

   -95.4527 -95.4527 -55.9817 -55.9817 -55.8577 -55.8576 -55.7900 -55.7900
   -16.3166 -16.3060 -16.1644 -16.1553  -0.0566  -0.0122   0.7423   0.7605
     1.5811   1.6095   1.7702   1.8457   3.0448   3.0613   3.2775   3.3134
     6.4302   6.5077   6.5612   6.5639   6.6724   6.7522   7.2180   7.3449
     7.8211   7.9670  15.9633  16.1412  17.2871  17.5959  18.7166  19.0268
    19.2700  19.5171  23.6707  24.0321  24.8170  24.8740  26.6159  27.5455
    28.8971  28.9517  29.5075  30.1886  32.7611  32.8298  35.1740  35.3208
    36.9177  37.4030  37.6858  38.1423  38.9734  39.1010  40.4391  41.0508
    42.0542  42.3470  43.9894  44.0422  45.8673  46.1482  46.2537

     occupation numbers 
     1.0000   1.0000   1.0000   1.0000   1.0000   1.0000   1.0000   1.0000
     1.0000   1.0000   1.0000   1.0000   1.0000   1.0000   1.0000   1.0000
     1.0000   1.0000   1.0000   1.0000   1.0000   1.0000   1.0000   1.0000
     1.0000   1.0000   1.0000   1.0000   1.0000   1.0000   1.0000   1.0000
     0.0035   0.0000   0.0000   0.0000   0.0000   0.0000   0.0000   0.0000
     0.0000   0.0000   0.0000   0.0000   0.0000   0.0000   0.0000   0.0000
     0.0000   0.0000   0.0000   0.0000   0.0000   0.0000   0.0000   0.0000
     0.0000   0.0000   0.0000   0.0000   0.0000   0.0000   0.0000   0.0000
     0.0000   0.0000   0.0000   0.0000   0.0000   0.0000   0.0000

          k = 0.4706 0.3053 0.2993 (  3497 PWs)   bands (ev):

   -95.4527 -95.4527 -55.9817 -55.9817 -55.8577 -55.8577 -55.7900 -55.7900
   -16.3160 -16.3123 -16.1578 -16.1545  -0.0996  -0.0841   0.7264   0.7323
     1.5740   1.5839   1.8504   1.8773   3.1470   3.1587   3.2561   3.2787
     6.4984   6.5500   6.5646   6.5691   6.6279   6.6856   7.3434   7.4202
     7.7364   7.8199  15.9875  16.0490  17.4865  17.6201  18.6728  18.8860
    19.0218  19.1907  23.9936  24.1274  25.4622  25.4951  26.7867  27.1990
    28.5827  28.7072  29.1793  29.5851  32.8362  32.8456  35.1497  35.1772
    37.1355  37.3668  38.1223  38.2814  39.0827  39.2617  40.4196  40.8964
    41.9724  42.0684  43.9176  43.9686  45.9507  46.1513  46.6220

     occupation numbers 
     1.0000   1.0000   1.0000   1.0000   1.0000   1.0000   1.0000   1.0000
     1.0000   1.0000   1.0000   1.0000   1.0000   1.0000   1.0000   1.0000
     1.0000   1.0000   1.0000   1.0000   1.0000   1.0000   1.0000   1.0000
     1.0000   1.0000   1.0000   1.0000   1.0000   1.0000   1.0000   1.0000
     0.2301   0.0038   0.0000   0.0000   0.0000   0.0000   0.0000   0.0000
     0.0000   0.0000   0.0000   0.0000   0.0000   0.0000   0.0000   0.0000
     0.0000   0.0000   0.0000   0.0000   0.0000   0.0000   0.0000   0.0000
     0.0000   0.0000   0.0000   0.0000   0.0000   0.0000   0.0000   0.0000
     0.0000   0.0000   0.0000   0.0000   0.0000   0.0000   0.0000

     the Fermi energy is     7.7171 ev
     (compare with:     7.7176 eV, computed in scf)

     Writing all to output data dir ./pwscf.save/ :
     XML data file, pseudopotentials, collected wavefunctions

     init_run     :      0.81s CPU      0.77s WALL (       1 calls)
     electrons    :   2986.15s CPU   1512.01s WALL (       1 calls)

     Called by init_run:
     wfcinit      :      0.00s CPU      0.00s WALL (       1 calls)
     wfcinit:atom :      0.33s CPU      0.18s WALL (     324 calls)
     wfcinit:wfcr :     83.42s CPU     42.38s WALL (     324 calls)
     potinit      :      0.22s CPU      0.21s WALL (       1 calls)
     hinit0       :      0.24s CPU      0.23s WALL (       1 calls)

     Called by electrons:
     c_bands      :   2986.04s CPU   1511.94s WALL (       1 calls)
     v_of_rho     :      0.03s CPU      0.02s WALL (       1 calls)
     v_h          :      0.00s CPU      0.00s WALL (       1 calls)
     v_xc         :      0.02s CPU      0.02s WALL (       1 calls)
     newd         :      0.24s CPU      0.20s WALL (       1 calls)

     Called by c_bands:
     init_us_2    :      0.57s CPU      0.31s WALL (     324 calls)
     cegterg      :   2891.49s CPU   1459.96s WALL (     667 calls)

     Called by sum_band:

     Called by *egterg:
     cdiaghg      :    150.34s CPU     76.72s WALL (    9783 calls)
     cegterg:over :    198.72s CPU    104.10s WALL (    9459 calls)
     cegterg:upda :    173.07s CPU     83.61s WALL (    9459 calls)
     cegterg:last :     80.71s CPU     41.10s WALL (    4257 calls)
     h_psi        :   2009.12s CPU   1021.53s WALL (   10450 calls)
     s_psi        :     79.82s CPU     42.70s WALL (   10450 calls)
     g_psi        :      2.04s CPU      2.07s WALL (    9459 calls)

     Called by h_psi:
     h_psi:calbec :    206.99s CPU    102.14s WALL (   10450 calls)
     vloc_psi     :   1709.21s CPU    870.62s WALL (   10450 calls)
                                        0.00s GPU  (   10450 calls)
     add_vuspsi   :     38.52s CPU     21.76s WALL (   10450 calls)

     General routines
     calbec       :    206.39s CPU    102.04s WALL (   10450 calls)
     fft          :      0.19s CPU      0.18s WALL (      13 calls)
     ffts         :      0.17s CPU      0.16s WALL (       1 calls)
     fftw         :   1564.55s CPU    794.02s WALL (  672666 calls)
     interpolate  :      0.17s CPU      0.16s WALL (       1 calls)
     davcio       :      9.94s CPU     13.52s WALL (     648 calls)

     Parallel routines

     PWSCF        :  49m59.89s CPU  26m22.31s WALL


   This run was terminated on:  15:11:21  16Apr2026            

=------------------------------------------------------------------------------=
   JOB DONE.
=------------------------------------------------------------------------------=
