
     Program PWSCF v.7.5 starts on 16Apr2026 at 10:50:14 

     This program is part of the open-source Quantum ESPRESSO suite
     for quantum simulation of materials; please cite
         "P. Giannozzi et al., J. Phys.:Condens. Matter 21 395502 (2009);
         "P. Giannozzi et al., J. Phys.:Condens. Matter 29 465901 (2017);
         "P. Giannozzi et al., J. Chem. Phys. 152 154105 (2020);
          URL http://www.quantum-espresso.org", 
     in publications or presentations arising from this work. More details at
     http://www.quantum-espresso.org/quote

     Parallel version (MPI & OpenMP), running on       8 processor cores
     Number of MPI processes:                 4
     Threads/MPI process:                     2

     MPI processes distributed on     1 nodes
     6743 MiB available memory on the printing compute node when the environment starts

     Reading input from scf.in
Warning: card &CELL ignored

     Current dimensions of program PWSCF are:
     Max number of different atomic species (ntypx) = 10
     Max number of k-points (npk) =  40000
     Max angular momentum in pseudopotentials (lmaxx) =  4
     Message from routine setup:
     using ibrav=0 with symmetry is DISCOURAGED, use correct ibrav instead

     R & G space division:  proc/nbgrp/npool/nimage =       4
     Subspace diagonalization in iterative solution of the eigenvalue problem:
     a serial algorithm will be used


     Parallelization info
     --------------------
     sticks:   dense  smooth     PW     G-vecs:    dense   smooth      PW
     Min         483     241     70                19801     6993    1130
     Max         484     243     71                19804     6994    1133
     Sum        1933     967    281                79209    27973    4527

     Using Slab Decomposition



     bravais-lattice index     =            0
     lattice parameter (alat)  =       5.8195  a.u.
     unit-cell volume          =     445.5756 (a.u.)^3
     number of atoms/cell      =            6
     number of atomic types    =            2
     number of electrons       =        64.00
     number of Kohn-Sham states=           71
     kinetic-energy cutoff     =      60.0000  Ry
     charge density cutoff     =     480.0000  Ry
     scf convergence threshold =      1.0E-08
     mixing beta               =       0.4000
     number of iterations used =            8  plain     mixing
     Exchange-correlation=  SLA  PW   PBX  PBC
                           (   1   4   3   4   0   0   0)

     celldm(1)=   5.819493  celldm(2)=   0.000000  celldm(3)=   0.000000
     celldm(4)=   0.000000  celldm(5)=   0.000000  celldm(6)=   0.000000

     crystal axes: (cart. coord. in units of alat)
               a(1) = (   1.000000   0.000000   0.000000 )  
               a(2) = (   0.000000   1.488838   0.000000 )  
               a(3) = (   0.000000   0.000000   1.518513 )  

     reciprocal axes: (cart. coord. in units 2 pi/alat)
               b(1) = (  1.000000  0.000000  0.000000 )  
               b(2) = (  0.000000  0.671665  0.000000 )  
               b(3) = (  0.000000  0.000000  0.658539 )  


     PseudoPot. # 1 for F  read from file:
     /mnt/d/DeepESense/pseudo/SSSP_1.3.0_PBE_efficiency/f_pbe_v1.4.uspp.F.UPF
     MD5 check sum: 4c38b6a325caf53ec0e86aed9459de46
     Pseudo is Ultrasoft, Zval =  7.0
     Generated by new atomic code, or converted to UPF format
     Using radial grid of  799 points,  4 beta functions with: 
                l(1) =   0
                l(2) =   0
                l(3) =   1
                l(4) =   1
     Q(r) pseudized with  8 coefficients,  rinner =    0.950   0.950   0.950


     PseudoPot. # 2 for Ni read from file:
     /mnt/d/DeepESense/pseudo/SSSP_1.3.0_PBE_efficiency/ni_pbe_v1.4.uspp.F.UPF
     MD5 check sum: 1ee80287db30b12d2bc1f57a5b5d6409
     Pseudo is Ultrasoft + core correction, Zval = 18.0
     Generated by new atomic code, or converted to UPF format
     Using radial grid of  865 points,  6 beta functions with: 
                l(1) =   0
                l(2) =   0
                l(3) =   1
                l(4) =   1
                l(5) =   2
                l(6) =   2
     Q(r) pseudized with 10 coefficients,  rinner =    0.980   0.980   0.980
                                                       0.980   0.980

     atomic species   valence    mass     pseudopotential
     F                 7.00    18.99840     F ( 1.00)
     Ni               18.00    58.69340     Ni( 1.00)

      8 Sym. Ops., with inversion, found ( 4 have fractional translation)



   Cartesian axes

     site n.     atom                  positions (alat units)
         1        Ni     tau(   1) = (   0.0000000   0.0000000   0.0000000  )
         2        Ni     tau(   2) = (   0.5000000   0.7444191   0.7592565  )
         3        F      tau(   3) = (   0.0000000   0.4286261   0.4846607  )
         4        F      tau(   4) = (   0.5000000   0.3157930   1.2439172  )
         5        F      tau(   5) = (   0.0000000   1.0602120   1.0338522  )
         6        F      tau(   6) = (   0.5000000   1.1730451   0.2745957  )

     number of k points=    96  Marzari-Vanderbilt smearing, width (Ry)=  0.0050
                       cart. coord. in units 2pi/alat
        k(    1) = (   0.0000000   0.0000000   0.0000000), wk =   0.0040816
        k(    2) = (   0.0000000   0.0000000   0.0940770), wk =   0.0081633
        k(    3) = (   0.0000000   0.0000000   0.1881540), wk =   0.0081633
        k(    4) = (   0.0000000   0.0000000   0.2822310), wk =   0.0081633
        k(    5) = (   0.0000000   0.0959521   0.0000000), wk =   0.0081633
        k(    6) = (   0.0000000   0.0959521   0.0940770), wk =   0.0163265
        k(    7) = (   0.0000000   0.0959521   0.1881540), wk =   0.0163265
        k(    8) = (   0.0000000   0.0959521   0.2822310), wk =   0.0163265
        k(    9) = (   0.0000000   0.1919042   0.0000000), wk =   0.0081633
        k(   10) = (   0.0000000   0.1919042   0.0940770), wk =   0.0163265
        k(   11) = (   0.0000000   0.1919042   0.1881540), wk =   0.0163265
        k(   12) = (   0.0000000   0.1919042   0.2822310), wk =   0.0163265
        k(   13) = (   0.0000000   0.2878563   0.0000000), wk =   0.0081633
        k(   14) = (   0.0000000   0.2878563   0.0940770), wk =   0.0163265
        k(   15) = (   0.0000000   0.2878563   0.1881540), wk =   0.0163265
        k(   16) = (   0.0000000   0.2878563   0.2822310), wk =   0.0163265
        k(   17) = (   0.1000000   0.0000000   0.0000000), wk =   0.0081633
        k(   18) = (   0.1000000   0.0000000   0.0940770), wk =   0.0163265
        k(   19) = (   0.1000000   0.0000000   0.1881540), wk =   0.0163265
        k(   20) = (   0.1000000   0.0000000   0.2822310), wk =   0.0163265
        k(   21) = (   0.1000000   0.0959521   0.0000000), wk =   0.0163265
        k(   22) = (   0.1000000   0.0959521   0.0940770), wk =   0.0326531
        k(   23) = (   0.1000000   0.0959521   0.1881540), wk =   0.0326531
        k(   24) = (   0.1000000   0.0959521   0.2822310), wk =   0.0326531
        k(   25) = (   0.1000000   0.1919042   0.0000000), wk =   0.0163265
        k(   26) = (   0.1000000   0.1919042   0.0940770), wk =   0.0326531
        k(   27) = (   0.1000000   0.1919042   0.1881540), wk =   0.0326531
        k(   28) = (   0.1000000   0.1919042   0.2822310), wk =   0.0326531
        k(   29) = (   0.1000000   0.2878563   0.0000000), wk =   0.0163265
        k(   30) = (   0.1000000   0.2878563   0.0940770), wk =   0.0326531
        k(   31) = (   0.1000000   0.2878563   0.1881540), wk =   0.0326531
        k(   32) = (   0.1000000   0.2878563   0.2822310), wk =   0.0326531
        k(   33) = (   0.2000000   0.0000000   0.0000000), wk =   0.0081633
        k(   34) = (   0.2000000   0.0000000   0.0940770), wk =   0.0163265
        k(   35) = (   0.2000000   0.0000000   0.1881540), wk =   0.0163265
        k(   36) = (   0.2000000   0.0000000   0.2822310), wk =   0.0163265
        k(   37) = (   0.2000000   0.0959521   0.0000000), wk =   0.0163265
        k(   38) = (   0.2000000   0.0959521   0.0940770), wk =   0.0326531
        k(   39) = (   0.2000000   0.0959521   0.1881540), wk =   0.0326531
        k(   40) = (   0.2000000   0.0959521   0.2822310), wk =   0.0326531
        k(   41) = (   0.2000000   0.1919042   0.0000000), wk =   0.0163265
        k(   42) = (   0.2000000   0.1919042   0.0940770), wk =   0.0326531
        k(   43) = (   0.2000000   0.1919042   0.1881540), wk =   0.0326531
        k(   44) = (   0.2000000   0.1919042   0.2822310), wk =   0.0326531
        k(   45) = (   0.2000000   0.2878563   0.0000000), wk =   0.0163265
        k(   46) = (   0.2000000   0.2878563   0.0940770), wk =   0.0326531
        k(   47) = (   0.2000000   0.2878563   0.1881540), wk =   0.0326531
        k(   48) = (   0.2000000   0.2878563   0.2822310), wk =   0.0326531
        k(   49) = (   0.3000000   0.0000000   0.0000000), wk =   0.0081633
        k(   50) = (   0.3000000   0.0000000   0.0940770), wk =   0.0163265
        k(   51) = (   0.3000000   0.0000000   0.1881540), wk =   0.0163265
        k(   52) = (   0.3000000   0.0000000   0.2822310), wk =   0.0163265
        k(   53) = (   0.3000000   0.0959521   0.0000000), wk =   0.0163265
        k(   54) = (   0.3000000   0.0959521   0.0940770), wk =   0.0326531
        k(   55) = (   0.3000000   0.0959521   0.1881540), wk =   0.0326531
        k(   56) = (   0.3000000   0.0959521   0.2822310), wk =   0.0326531
        k(   57) = (   0.3000000   0.1919042   0.0000000), wk =   0.0163265
        k(   58) = (   0.3000000   0.1919042   0.0940770), wk =   0.0326531
        k(   59) = (   0.3000000   0.1919042   0.1881540), wk =   0.0326531
        k(   60) = (   0.3000000   0.1919042   0.2822310), wk =   0.0326531
        k(   61) = (   0.3000000   0.2878563   0.0000000), wk =   0.0163265
        k(   62) = (   0.3000000   0.2878563   0.0940770), wk =   0.0326531
        k(   63) = (   0.3000000   0.2878563   0.1881540), wk =   0.0326531
        k(   64) = (   0.3000000   0.2878563   0.2822310), wk =   0.0326531
        k(   65) = (   0.4000000   0.0000000   0.0000000), wk =   0.0081633
        k(   66) = (   0.4000000   0.0000000   0.0940770), wk =   0.0163265
        k(   67) = (   0.4000000   0.0000000   0.1881540), wk =   0.0163265
        k(   68) = (   0.4000000   0.0000000   0.2822310), wk =   0.0163265
        k(   69) = (   0.4000000   0.0959521   0.0000000), wk =   0.0163265
        k(   70) = (   0.4000000   0.0959521   0.0940770), wk =   0.0326531
        k(   71) = (   0.4000000   0.0959521   0.1881540), wk =   0.0326531
        k(   72) = (   0.4000000   0.0959521   0.2822310), wk =   0.0326531
        k(   73) = (   0.4000000   0.1919042   0.0000000), wk =   0.0163265
        k(   74) = (   0.4000000   0.1919042   0.0940770), wk =   0.0326531
        k(   75) = (   0.4000000   0.1919042   0.1881540), wk =   0.0326531
        k(   76) = (   0.4000000   0.1919042   0.2822310), wk =   0.0326531
        k(   77) = (   0.4000000   0.2878563   0.0000000), wk =   0.0163265
        k(   78) = (   0.4000000   0.2878563   0.0940770), wk =   0.0326531
        k(   79) = (   0.4000000   0.2878563   0.1881540), wk =   0.0326531
        k(   80) = (   0.4000000   0.2878563   0.2822310), wk =   0.0326531
        k(   81) = (  -0.5000000   0.0000000   0.0000000), wk =   0.0040816
        k(   82) = (  -0.5000000   0.0000000   0.0940770), wk =   0.0081633
        k(   83) = (  -0.5000000   0.0000000   0.1881540), wk =   0.0081633
        k(   84) = (  -0.5000000   0.0000000   0.2822310), wk =   0.0081633
        k(   85) = (  -0.5000000   0.0959521   0.0000000), wk =   0.0081633
        k(   86) = (  -0.5000000   0.0959521   0.0940770), wk =   0.0163265
        k(   87) = (  -0.5000000   0.0959521   0.1881540), wk =   0.0163265
        k(   88) = (  -0.5000000   0.0959521   0.2822310), wk =   0.0163265
        k(   89) = (  -0.5000000   0.1919042   0.0000000), wk =   0.0081633
        k(   90) = (  -0.5000000   0.1919042   0.0940770), wk =   0.0163265
        k(   91) = (  -0.5000000   0.1919042   0.1881540), wk =   0.0163265
        k(   92) = (  -0.5000000   0.1919042   0.2822310), wk =   0.0163265
        k(   93) = (  -0.5000000   0.2878563   0.0000000), wk =   0.0081633
        k(   94) = (  -0.5000000   0.2878563   0.0940770), wk =   0.0163265
        k(   95) = (  -0.5000000   0.2878563   0.1881540), wk =   0.0163265
        k(   96) = (  -0.5000000   0.2878563   0.2822310), wk =   0.0163265

     Dense  grid:    79209 G-vectors     FFT dimensions: (  48,  64,  64)

     Smooth grid:    27973 G-vectors     FFT dimensions: (  30,  48,  48)

     Estimated max dynamical RAM per process >     169.12 MB

     Estimated total dynamical RAM >     676.48 MB

     Check: negative core charge=   -0.000006

     Initial potential from superposition of free atoms

     starting charge      60.0000, renormalised to      64.0000
     Starting wfcs are   42 randomized atomic wfcs +   29 random wfcs

     total cpu time spent up to now is       16.5 secs

     per-process dynamical memory:   129.2 Mb

     Self-consistent Calculation

     iteration #  1     ecut=    60.00 Ry     beta= 0.40
     Davidson diagonalization with overlap
     ethr =  1.00E-02,  avg # of iterations =  6.1

     total cpu time spent up to now is      133.2 secs

     total energy              =    -859.27867970 Ry
     estimated scf accuracy    <      46.71669814 Ry

     iteration #  2     ecut=    60.00 Ry     beta= 0.40
     Davidson diagonalization with overlap
     ethr =  1.00E-02,  avg # of iterations =  2.3

     total cpu time spent up to now is      193.7 secs

     total energy              =    -878.69075301 Ry
     estimated scf accuracy    <      43.23136040 Ry

     iteration #  3     ecut=    60.00 Ry     beta= 0.40
     Davidson diagonalization with overlap
     ethr =  1.00E-02,  avg # of iterations =  2.0

     total cpu time spent up to now is      247.9 secs

     total energy              =    -880.50938731 Ry
     estimated scf accuracy    <       4.14894691 Ry

     iteration #  4     ecut=    60.00 Ry     beta= 0.40
     Davidson diagonalization with overlap
     ethr =  6.48E-03,  avg # of iterations =  1.0

     total cpu time spent up to now is      288.4 secs

     total energy              =    -881.04521995 Ry
     estimated scf accuracy    <       0.12342782 Ry

     iteration #  5     ecut=    60.00 Ry     beta= 0.40
     Davidson diagonalization with overlap
     ethr =  1.93E-04,  avg # of iterations =  3.2

     total cpu time spent up to now is      359.8 secs

     total energy              =    -881.03093526 Ry
     estimated scf accuracy    <       0.13623800 Ry

     iteration #  6     ecut=    60.00 Ry     beta= 0.40
     Davidson diagonalization with overlap
     ethr =  1.93E-04,  avg # of iterations =  1.2

     total cpu time spent up to now is      401.2 secs

     total energy              =    -881.03123845 Ry
     estimated scf accuracy    <       0.02096028 Ry

     iteration #  7     ecut=    60.00 Ry     beta= 0.40
     Davidson diagonalization with overlap
     ethr =  3.28E-05,  avg # of iterations =  5.6

     total cpu time spent up to now is      549.0 secs

     total energy              =    -881.03593185 Ry
     estimated scf accuracy    <       0.01308489 Ry

     iteration #  8     ecut=    60.00 Ry     beta= 0.40
     Davidson diagonalization with overlap
     ethr =  2.04E-05,  avg # of iterations =  1.1

     total cpu time spent up to now is     1588.7 secs

     total energy              =    -881.03735972 Ry
     estimated scf accuracy    <       0.00066308 Ry

     iteration #  9     ecut=    60.00 Ry     beta= 0.40
     Davidson diagonalization with overlap
     c_bands:  1 eigenvalues not converged
     ethr =  1.04E-06,  avg # of iterations =  4.2

     total cpu time spent up to now is     2739.0 secs

     total energy              =    -881.03741219 Ry
     estimated scf accuracy    <       0.00005169 Ry

     iteration # 10     ecut=    60.00 Ry     beta= 0.40
     Davidson diagonalization with overlap
     ethr =  8.08E-08,  avg # of iterations =  1.1

     total cpu time spent up to now is     3972.8 secs

     total energy              =    -881.03742311 Ry
     estimated scf accuracy    <       0.00000190 Ry

     iteration # 11     ecut=    60.00 Ry     beta= 0.40
     Davidson diagonalization with overlap
     ethr =  2.97E-09,  avg # of iterations =  2.0

     total cpu time spent up to now is     5185.3 secs

     total energy              =    -881.03742349 Ry
     estimated scf accuracy    <       0.00000005 Ry

     iteration # 12     ecut=    60.00 Ry     beta= 0.40
     Davidson diagonalization with overlap
     ethr =  7.22E-11,  avg # of iterations =  2.0

     total cpu time spent up to now is     6983.4 secs

     total energy              =    -881.03742350 Ry
     estimated scf accuracy    <       0.00000004 Ry

     iteration # 13     ecut=    60.00 Ry     beta= 0.40
     Davidson diagonalization with overlap
     ethr =  6.28E-11,  avg # of iterations =  1.0

     total cpu time spent up to now is     8569.5 secs

     End of self-consistent calculation

          k = 0.0000 0.0000 0.0000 (  3487 PWs)   bands (ev):

   -95.4537 -95.4536 -55.9717 -55.9710 -55.8588 -55.8588 -55.7919 -55.7917
   -16.9469 -16.1446 -16.1375 -16.1273  -0.6767   0.6612   1.1510   1.5871
     1.5937   1.6183   1.8677   1.9061   2.9908   3.4905   3.5000   3.7984
     6.2139   6.2661   6.3472   6.3762   6.4400   6.8796   7.2108   7.9964
     7.9968   8.4992  10.4328  16.1237  16.2507  17.1628  19.4482  20.5392
    21.3166  21.9517  22.2450  23.1997  25.4169  26.9014  29.8405  29.9476
    30.0379  31.0632  31.3382  31.7763  32.1274  32.5740  32.8970  33.0807
    33.1578  34.2130  35.8507  35.8555  36.7983  37.4324  38.3935  41.0941
    41.4891  41.9997  42.2138  42.7487  42.7957  44.5340  44.6495

          k = 0.0000 0.0000 0.0941 (  3476 PWs)   bands (ev):

   -95.4537 -95.4536 -55.9717 -55.9711 -55.8588 -55.8588 -55.7919 -55.7918
   -16.9145 -16.2259 -16.1384 -16.0823  -0.5799   0.6512   1.2046   1.5784
     1.6133   1.6260   1.8503   1.9239   2.9247   3.2944   3.4451   3.7409
     6.2778   6.2898   6.3828   6.3995   6.4816   6.9385   7.1728   7.9716
     7.9777   8.4290  10.6991  15.6402  16.3042  17.5819  19.6290  20.1723
    21.0327  22.5087  22.5145  23.3287  25.3455  26.9733  28.1755  29.4168
    30.2341  30.3705  31.2594  31.7432  31.7681  32.5941  33.2390  33.8934
    34.2215  35.5285  35.5352  35.6612  36.6250  37.5297  38.5959  40.5524
    41.4459  41.6249  42.1694  42.8387  43.9773  44.5615  44.7062

          k = 0.0000 0.0000 0.1882 (  3488 PWs)   bands (ev):

   -95.4537 -95.4536 -55.9716 -55.9711 -55.8588 -55.8588 -55.7919 -55.7918
   -16.8219 -16.3603 -16.1213 -16.0680  -0.3137   0.5854   1.3504   1.5688
     1.6001   1.7220   1.7252   2.0707   2.7497   2.8293   3.3456   3.5918
     6.3423   6.3780   6.4567   6.4606   6.5914   7.0542   7.1608   7.9160
     7.9302   8.2165  11.4165  14.6264  16.7977  17.9503  19.7091  20.0326
    20.6566  23.1653  23.1836  23.6884  25.1169  26.8075  27.1918  27.5503
    29.1464  30.8118  30.8517  31.6340  32.0053  32.3183  32.9942  33.9717
    35.1586  35.3505  36.4529  37.2412  37.8072  38.2478  38.9421  40.3207
    40.5769  41.1329  41.9285  43.6379  44.3854  44.5462  44.6797

          k = 0.0000 0.0000 0.2822 (  3510 PWs)   bands (ev):

   -95.4537 -95.4536 -55.9714 -55.9713 -55.8588 -55.8588 -55.7918 -55.7918
   -16.6834 -16.5208 -16.0984 -16.0773   0.0481   0.3852   1.5129   1.5712
     1.5838   1.6145   1.9261   2.2779   2.3174   2.5171   3.3202   3.4203
     6.3919   6.4132   6.5115   6.5177   6.7432   6.9091   7.5038   7.8750
     7.8833   7.8880  12.4090  13.5172  17.4458  17.9216  19.4876  19.6592
    21.5054  22.6841  24.1564  24.1955  24.7160  25.4831  27.5804  27.6352
    28.2073  29.2296  31.6077  31.7269  31.7910  32.4984  32.8463  32.8701
    35.4604  35.7931  37.9383  38.1642  38.2228  38.8623  39.8387  40.1793
    40.1897  41.0898  42.7883  43.8056  43.8903  44.1931  44.2069

          k = 0.0000 0.0960 0.0000 (  3479 PWs)   bands (ev):

   -95.4537 -95.4536 -55.9717 -55.9711 -55.8588 -55.8588 -55.7919 -55.7918
   -16.9135 -16.2248 -16.1237 -16.0989  -0.5882   0.6313   1.1949   1.5805
     1.5820   1.5947   1.9216   1.9370   2.9301   3.2884   3.4452   3.7718
     6.2772   6.2918   6.3726   6.4073   6.4854   6.9376   7.1845   7.9714
     7.9768   8.4338  10.7054  15.6144  16.3323  17.3349  19.7774  20.1959
    20.9630  22.3056  22.7952  23.3145  25.3303  26.9609  28.8969  29.5012
    29.8908  29.9663  31.5414  31.5894  31.8117  32.2210  33.2843  33.5423
    34.2984  36.0005  36.0215  36.0647  37.0974  37.2235  37.4695  40.9659
    41.3121  41.4429  42.0964  42.5156  43.6314  44.2103  44.3331

          k = 0.0000 0.0960 0.0941 (  3485 PWs)   bands (ev):

   -95.4537 -95.4536 -55.9716 -55.9711 -55.8588 -55.8588 -55.7919 -55.7918
   -16.8825 -16.2572 -16.1479 -16.0775  -0.5082   0.6121   1.2438   1.5723
     1.5905   1.5972   1.9198   1.9838   2.8736   3.1403   3.4024   3.7131
     6.2438   6.3618   6.3621   6.4581   6.5251   6.9835   7.1538   7.9224
     7.9958   8.3589  10.9649  15.5761  15.9842  17.6767  19.8492  19.9543
    21.2559  22.0452  23.3369  23.4325  25.2653  27.0261  28.1692  28.9001
    29.3864  29.8096  30.3866  31.1525  32.7226  33.1031  34.0059  34.2771
    34.3042  35.7465  35.7841  36.4514  37.1493  37.3927  37.5383  40.9706
    40.9818  41.4002  42.0291  43.0241  43.9752  44.1265  44.2338

          k = 0.0000 0.0960 0.1882 (  3503 PWs)   bands (ev):

   -95.4537 -95.4536 -55.9716 -55.9712 -55.8588 -55.8588 -55.7919 -55.7918
   -16.7945 -16.3644 -16.1420 -16.0738  -0.2892   0.5190   1.3837   1.5644
     1.5911   1.6112   1.9553   2.1127   2.7216   2.7895   3.2954   3.5556
     6.2794   6.3938   6.4099   6.5138   6.6278   7.0372   7.1794   7.8778
     7.9740   8.1416  11.6578  14.7264  16.3193  17.8440  19.6491  20.4648
    20.9883  22.4137  23.7608  24.0457  25.0575  26.7662  27.2233  27.4908
    28.8167  29.3836  30.2509  31.2432  32.0267  33.5518  34.2222  34.2888
    34.8830  35.7841  36.3629  37.3190  37.8354  38.1570  38.7128  40.1336
    40.8450  41.3266  41.6895  43.3871  44.0096  44.0439  44.6050

          k = 0.0000 0.0960 0.2822 (  3494 PWs)   bands (ev):

   -95.4537 -95.4536 -55.9714 -55.9713 -55.8588 -55.8588 -55.7918 -55.7918
   -16.6633 -16.5109 -16.1174 -16.0906   0.0100   0.3070   1.5593   1.5674
     1.5785   1.6295   2.0798   2.2996   2.3778   2.5152   3.2590   3.3681
     6.3498   6.4023   6.4601   6.5149   6.7653   6.9129   7.4689   7.8212
     7.8782   7.9228  12.6107  13.6721  16.9172  17.5021  19.8395  20.2902
    21.5489  22.5009  24.2220  24.3928  24.6939  25.4554  27.5693  27.6031
    28.1051  28.7950  30.3006  30.7364  32.0140  33.1112  33.7672  34.0756
    35.4678  35.8951  37.6118  38.2514  38.2895  38.8101  39.7877  39.8294
    40.6070  40.7922  42.4236  43.3148  43.9698  44.0405  44.3140

          k = 0.0000 0.1919 0.0000 (  3475 PWs)   bands (ev):

   -95.4537 -95.4536 -55.9716 -55.9711 -55.8588 -55.8588 -55.7919 -55.7918
   -16.8183 -16.3530 -16.1139 -16.0860  -0.3486   0.5135   1.3436   1.5638
     1.5694   1.5861   1.9320   2.0994   2.7673   2.7855   3.3842   3.6832
     6.3479   6.3773   6.4360   6.4741   6.6013   7.0248   7.2237   7.9144
     7.9281   8.2359  11.4332  14.6438  16.5711  17.4015  19.7785  20.3308
    20.7136  23.0015  23.4921  23.6389  25.0635  26.9683  27.1392  28.6275
    28.8479  30.0488  31.3082  31.7450  31.8939  32.1289  32.8281  34.3659
    35.8204  35.8722  36.4289  36.6466  36.9831  38.2095  38.9075  40.3675
    40.7758  41.2525  41.6296  41.9515  43.6581  44.0818  44.1198

          k = 0.0000 0.1919 0.0941 (  3499 PWs)   bands (ev):

   -95.4537 -95.4536 -55.9716 -55.9712 -55.8588 -55.8588 -55.7919 -55.7918
   -16.7919 -16.3587 -16.1421 -16.0817  -0.3137   0.4707   1.3741   1.5583
     1.5736   1.6108   1.9959   2.1313   2.7338   2.7742   3.3158   3.6228
     6.2820   6.3895   6.4112   6.5131   6.6336   7.0212   7.2181   7.8765
     7.9727   8.1551  11.6704  14.7726  16.1204  17.5057  19.7040  20.7200
    20.8963  22.5314  23.7260  24.0623  25.0201  26.9524  27.1849  28.2856
    28.5412  29.1331  29.5876  32.0278  32.7846  33.0503  33.4502  34.8180
    35.4903  35.9070  36.2612  36.5806  37.4091  37.9177  39.1194  39.9670
    41.2158  41.4905  41.5074  42.0420  43.6587  43.8573  44.0094

          k = 0.0000 0.1919 0.1882 (  3495 PWs)   bands (ev):

   -95.4537 -95.4536 -55.9715 -55.9712 -55.8588 -55.8588 -55.7918 -55.7918
   -16.7174 -16.3972 -16.1710 -16.0959  -0.2123   0.3369   1.4805   1.5556
     1.5734   1.6829   2.1625   2.2218   2.6398   2.7045   3.1612   3.4599
     6.2337   6.3662   6.4033   6.5138   6.7157   6.9902   7.2623   7.8767
     7.9406   7.9939  12.2979  14.8459  15.6147  17.2297  20.0977  21.0818
    21.5971  21.9511  23.9663  24.7081  24.8794  26.4083  27.0786  27.3213
    28.0668  28.2647  29.1720  32.1585  32.4623  33.1403  34.3000  34.9046
    35.7565  35.7736  36.4889  37.7075  38.1113  38.1882  39.0230  39.8689
    41.0128  41.1020  41.4872  43.0893  43.2618  43.6939  44.3890

          k = 0.0000 0.1919 0.2822 (  3489 PWs)   bands (ev):

   -95.4537 -95.4536 -55.9714 -55.9713 -55.8588 -55.8588 -55.7918 -55.7918
   -16.6090 -16.4905 -16.1603 -16.1273  -0.0539   0.1425   1.5594   1.5670
     1.6389   1.7277   2.3545   2.3612   2.5040   2.5537   3.0933   3.2415
     6.2675   6.3454   6.3962   6.4606   6.8162   6.9148   7.4196   7.6666
     7.9209   7.9721  13.1526  14.0858  16.0196  16.6514  20.7029  21.2752
    21.7326  22.1800  24.2978  24.6292  24.6361  25.2021  27.1752  27.5508
    27.5535  27.8859  29.6547  30.8793  32.7913  33.4948  33.7893  34.0415
    36.3070  36.5468  36.8031  37.8966  38.7142  39.1858  39.1988  40.2026
    40.2423  40.8433  42.0940  42.6715  43.7995  44.0718  44.4359

          k = 0.0000 0.2879 0.0000 (  3482 PWs)   bands (ev):

   -95.4537 -95.4536 -55.9714 -55.9713 -55.8588 -55.8588 -55.7918 -55.7918
   -16.6767 -16.5122 -16.1010 -16.0896  -0.0289   0.2822   1.5515   1.5562
     1.5944   1.6487   1.9228   2.2301   2.3119   2.5463   3.4189   3.5456
     6.3988   6.4167   6.5004   6.5184   6.7538   6.9108   7.5501   7.8720
     7.8803   7.9235  12.4327  13.5428  16.9169  17.2398  19.6433  19.8542
    21.9153  23.1239  23.9789  24.1118  24.6291  25.2748  27.4466  27.9243
    29.2567  30.2057  30.7895  31.0932  31.8072  31.9182  33.0196  33.9933
    36.1973  36.5240  37.0275  37.3211  37.5363  38.4598  39.7018  39.8564
    40.2737  40.6653  41.8268  42.9476  43.8089  43.9355  44.2856

          k = 0.0000 0.2879 0.0941 (  3498 PWs)   bands (ev):

   -95.4537 -95.4536 -55.9714 -55.9713 -55.8588 -55.8588 -55.7918 -55.7918
   -16.6577 -16.5034 -16.1218 -16.0989  -0.0477   0.2323   1.5511   1.5574
     1.5780   1.6870   2.0441   2.3264   2.3352   2.5386   3.3402   3.4769
     6.3546   6.4062   6.4549   6.5115   6.7728   6.9143   7.5049   7.8490
     7.8758   7.9204  12.6366  13.7113  16.5411  17.0509  19.8667  20.2785
    21.9403  22.8849  24.1545  24.2872  24.6240  25.3069  27.4613  27.8956
    28.6707  29.0952  29.5394  31.0902  33.0601  33.1669  33.2622  34.1655
    36.0590  36.3258  36.6890  37.4955  37.6907  38.4141  39.5840  39.8365
    40.5093  40.5949  41.8468  42.7946  43.5329  44.0333  44.1624

          k = 0.0000 0.2879 0.1882 (  3514 PWs)   bands (ev):

   -95.4537 -95.4537 -55.9714 -55.9713 -55.8588 -55.8588 -55.7918 -55.7918
   -16.6061 -16.4866 -16.1637 -16.1308  -0.0766   0.1155   1.5518   1.5583
     1.6325   1.7454   2.3198   2.3660   2.5145   2.5557   3.1364   3.3015
     6.2694   6.3472   6.3941   6.4589   6.8189   6.9156   7.4342   7.6785
     7.9199   7.9711  13.1762  14.1428  15.8389  16.4881  20.5730  21.0852
    22.0357  22.5231  24.2673  24.5979  24.6170  25.1825  27.1427  27.5040
    27.5431  27.8089  29.7284  31.3611  33.1606  33.3094  33.8428  34.5560
    36.0765  36.2786  36.7236  37.3916  38.3656  38.7795  39.2014  40.1242
    40.3127  40.7549  41.8573  42.5447  43.7591  44.0522  44.2860

          k = 0.0000 0.2879 0.2822 (  3506 PWs)   bands (ev):

   -95.4537 -95.4537 -55.9714 -55.9713 -55.8588 -55.8588 -55.7918 -55.7918
   -16.5397 -16.4914 -16.1892 -16.1710  -0.0689  -0.0010   1.5543   1.5571
     1.7330   1.7829   2.4198   2.4732   2.6057   2.7835   2.8997   3.0745
     6.2199   6.2612   6.3690   6.3966   6.8664   6.9006   7.4297   7.5165
     7.9708   7.9924  13.8929  14.4554  15.3443  15.8028  21.3886  21.7361
    22.2473  22.3036  24.3330  24.4087  24.5243  24.5285  26.6261  26.7866
    27.5780  27.6873  30.4982  31.6678  32.1858  33.0481  33.8717  34.5567
    35.9098  36.6545  36.8168  36.9172  39.3246  39.4116  39.6938  40.0558
    40.2451  40.8475  42.2074  42.4443  43.7017  43.8046  45.2429

          k = 0.1000 0.0000 0.0000 (  3477 PWs)   bands (ev):

   -95.4537 -95.4535 -55.9727 -55.9721 -55.8587 -55.8587 -55.7917 -55.7916
   -16.9118 -16.1415 -16.1395 -16.1251  -0.6007   0.6840   1.2221   1.3753
     1.5157   1.7280   1.8306   2.0182   2.7513   3.4090   3.4235   3.7589
     6.2362   6.3212   6.3841   6.4106   6.4319   6.9468   7.1861   7.9169
     7.9195   8.4349  10.7500  16.4130  16.5224  17.2239  19.4869  20.5793
    21.0183  21.9669  22.2613  22.7838  25.5876  25.8816  28.5520  29.6177
    30.0816  30.7001  31.0580  31.6004  32.1726  33.4826  33.6747  34.1897
    34.2583  34.6483  35.4102  36.9292  37.0484  37.2866  38.4862  41.0059
    41.4728  41.7154  41.9247  42.7447  43.0935  44.1682  44.4710

          k = 0.1000 0.0000 0.0941 (  3474 PWs)   bands (ev):

   -95.4537 -95.4535 -55.9727 -55.9721 -55.8587 -55.8587 -55.7917 -55.7916
   -16.8805 -16.2206 -16.1359 -16.0853  -0.5072   0.6770   1.2184   1.4758
     1.5097   1.6597   1.9260   1.9548   2.6424   3.2950   3.3804   3.7081
     6.2995   6.3425   6.3868   6.4245   6.4939   7.0022   7.1519   7.8742
     7.8987   8.3930  10.9993  15.8627  16.5853  17.6746  19.6723  20.1976
    20.9315  22.2562  22.5124  22.8774  25.5850  25.8413  28.1605  28.9971
    29.0239  30.8270  31.3507  31.8402  32.4394  32.7996  33.4802  34.4063
    35.0367  35.6342  35.7164  36.0783  37.0793  37.7172  38.6960  40.6972
    41.1578  41.6456  42.2186  42.7080  43.9402  43.9466  44.6234

          k = 0.1000 0.0000 0.1882 (  3494 PWs)   bands (ev):

   -95.4537 -95.4536 -55.9726 -55.9722 -55.8587 -55.8587 -55.7917 -55.7916
   -16.7911 -16.3481 -16.1204 -16.0721  -0.2484   0.6210   1.2663   1.4965
     1.5778   1.7196   1.7973   2.0611   2.3802   2.9996   3.3130   3.5801
     6.3858   6.4089   6.4483   6.4621   6.6070   7.0337   7.2074   7.7761
     7.8580   8.2423  11.6804  14.8351  17.0588  18.0470  19.7206  20.0683
    20.7150  22.5235  22.7237  23.5611  25.4920  25.9770  26.5453  28.2423
    28.5785  30.7801  30.7812  32.1427  32.6168  32.7967  33.1243  33.8870
    35.4964  35.9562  36.1250  37.0465  38.4371  38.5662  39.0281  40.0684
    40.8693  41.1349  42.3400  43.1277  43.5400  44.1456  44.6590

          k = 0.1000 0.0000 0.2822 (  3516 PWs)   bands (ev):

   -95.4536 -95.4536 -55.9725 -55.9723 -55.8587 -55.8587 -55.7917 -55.7917
   -16.6577 -16.5016 -16.0996 -16.0805   0.1059   0.4342   1.3707   1.4671
     1.5739   1.6369   1.9320   2.1165   2.2687   2.6197   3.3233   3.4306
     6.4257   6.4418   6.5164   6.5191   6.7446   6.8958   7.4800   7.6697
     7.8509   8.0048  12.6400  13.7292  17.6740  18.0770  19.5003  19.7130
    21.3947  22.2693  23.2070  23.8882  25.2213  25.2265  26.9448  27.7332
    28.4034  29.2883  31.4065  32.1254  32.2946  32.7529  33.0610  33.3346
    36.1870  36.5423  36.7318  37.4530  38.4044  38.4144  40.0515  40.5226
    40.7471  41.2795  42.7973  42.8489  43.3943  44.1272  44.8706

          k = 0.1000 0.0960 0.0000 (  3476 PWs)   bands (ev):

   -95.4537 -95.4535 -55.9727 -55.9721 -55.8587 -55.8587 -55.7917 -55.7916
   -16.8795 -16.2188 -16.1220 -16.1019  -0.5151   0.6570   1.2296   1.3811
     1.5649   1.7306   1.8001   2.0523   2.6486   3.2918   3.3792   3.7337
     6.2974   6.3458   6.3998   6.4044   6.5023   6.9959   7.1686   7.8701
     7.9010   8.3959  11.0076  15.8563  16.6026  17.4317  19.8307  20.2165
    20.8827  22.0076  22.7940  22.8882  25.5656  25.9110  28.3363  28.5322
    29.9035  30.5402  31.3976  31.6544  32.2393  32.7157  33.3798  34.2521
    34.8432  35.6526  36.6179  36.7202  37.1300  37.4387  37.8512  40.8122
    41.1789  41.6994  41.9346  42.5653  43.3359  44.1061  44.4869

          k = 0.1000 0.0960 0.0941 (  3489 PWs)   bands (ev):

   -95.4537 -95.4536 -55.9727 -55.9721 -55.8587 -55.8587 -55.7917 -55.7916
   -16.8496 -16.2499 -16.1452 -16.0812  -0.4395   0.6412   1.2206   1.4491
     1.5840   1.6414   1.9224   2.0152   2.5678   3.2090   3.3415   3.6786
     6.2799   6.3673   6.4004   6.4725   6.5372   7.0311   7.1468   7.8084
     7.9182   8.3440  11.2502  15.7885  16.2347  17.8057  19.8691  20.0033
    21.0880  22.0335  22.8738  23.1360  25.5419  25.8488  27.8289  28.5950
    29.1832  30.2319  30.7225  31.7367  32.2686  33.3376  33.6241  34.7839
    35.3729  35.6120  36.3496  36.5849  37.1904  37.8028  38.0747  40.3904
    41.1803  41.5834  42.1945  42.9285  43.5606  43.8537  44.3005

          k = 0.1000 0.0960 0.1882 (  3503 PWs)   bands (ev):

   -95.4537 -95.4536 -55.9726 -55.9722 -55.8587 -55.8587 -55.7917 -55.7916
   -16.7647 -16.3521 -16.1400 -16.0776  -0.2310   0.5545   1.2552   1.4747
     1.6010   1.7094   1.9702   2.0602   2.3851   2.9727   3.2624   3.5392
     6.3195   6.3916   6.4397   6.5279   6.6348   7.0163   7.2280   7.7357
     7.8947   8.1826  11.9077  14.9258  16.5402  17.9939  19.6326  20.4641
    21.0133  22.1958  22.9517  23.8079  25.3820  25.9195  26.5716  28.0546
    28.7074  29.9070  30.5741  31.2482  32.2207  33.1064  34.2045  34.8762
    35.3163  35.8905  36.6245  37.2955  38.2513  38.4836  38.9641  39.6637
    40.8555  41.3526  42.3394  43.0783  43.3927  43.8933  44.7527

          k = 0.1000 0.0960 0.2822 (  3499 PWs)   bands (ev):

   -95.4536 -95.4536 -55.9725 -55.9723 -55.8587 -55.8587 -55.7917 -55.7917
   -16.6385 -16.4921 -16.1175 -16.0931   0.0576   0.3477   1.3401   1.4279
     1.6543   1.7244   2.0676   2.1475   2.3040   2.6237   3.2619   3.3755
     6.3894   6.4311   6.4623   6.5242   6.7595   6.8960   7.4711   7.6695
     7.8640   7.9628  12.8290  13.8732  17.1070  17.6681  19.8342  20.2964
    21.4856  22.2112  23.2089  23.8925  25.1413  25.5167  26.6861  27.5573
    28.4904  29.3325  30.7399  31.0354  31.9755  32.4444  34.3318  34.5910
    36.0856  36.4888  36.7409  37.6644  38.4528  38.5702  40.1176  40.1740
    40.5014  40.8694  42.8702  43.2009  43.5736  44.1255  44.7209

          k = 0.1000 0.1919 0.0000 (  3484 PWs)   bands (ev):

   -95.4537 -95.4536 -55.9726 -55.9722 -55.8587 -55.8587 -55.7917 -55.7916
   -16.7876 -16.3404 -16.1136 -16.0900  -0.2820   0.5491   1.2948   1.4152
     1.5792   1.7368   1.8578   2.1012   2.3675   2.9796   3.3545   3.6565
     6.3883   6.4079   6.4400   6.4654   6.6170   7.0131   7.2576   7.7696
     7.8605   8.2571  11.7027  14.8628  16.8335  17.5310  19.7794  20.3642
    20.7761  22.3338  22.8891  23.7028  25.4097  26.0935  26.7733  27.9217
    29.8350  29.9148  31.3583  32.1402  32.2857  32.5969  33.1004  34.0481
    35.5567  35.5860  36.7002  36.7697  38.1281  38.3132  39.2119  39.8511
    40.8455  41.2034  41.9655  42.4345  43.4405  44.0727  44.3695

          k = 0.1000 0.1919 0.0941 (  3490 PWs)   bands (ev):

   -95.4537 -95.4536 -55.9726 -55.9722 -55.8587 -55.8587 -55.7917 -55.7916
   -16.7621 -16.3461 -16.1405 -16.0854  -0.2544   0.5063   1.2606   1.4574
     1.6077   1.7156   1.9881   2.0682   2.3880   2.9629   3.2914   3.5939
     6.3203   6.3900   6.4394   6.5289   6.6391   7.0054   7.2591   7.7322
     7.8956   8.1933  11.9238  14.9771  16.3438  17.6726  19.6785  20.7126
    20.9517  22.2158  22.9679  23.8801  25.3015  26.0446  26.7460  27.8619
    29.2399  29.6865  30.4885  31.3086  32.5498  33.2599  34.2886  34.4436
    35.1103  36.0426  36.5206  37.1748  38.0323  38.1746  39.3276  39.5507
    40.7058  41.7672  42.0065  42.5012  43.5402  43.7406  43.9556

          k = 0.1000 0.1919 0.1882 (  3497 PWs)   bands (ev):

   -95.4536 -95.4536 -55.9725 -55.9723 -55.8587 -55.8587 -55.7917 -55.7917
   -16.6905 -16.3835 -16.1679 -16.0986  -0.1683   0.3684   1.2539   1.4286
     1.7148   1.8289   2.0636   2.1850   2.3853   2.8821   3.1463   3.4330
     6.2735   6.3766   6.4368   6.5317   6.7085   6.9672   7.3112   7.7052
     7.9173   8.0297  12.5175  15.0166  15.8212  17.3948  20.0091  21.1426
    21.4595  21.8984  23.0634  24.1742  25.2030  25.8765  26.5618  27.3877
    28.6595  28.8374  30.0624  31.1302  32.6786  33.3857  34.2164  34.7893
    35.0648  36.3317  37.6407  37.7278  38.1854  38.6197  39.0560  39.7494
    40.3779  41.8226  42.1514  42.7229  43.3597  43.6196  44.3409

          k = 0.1000 0.1919 0.2822 (  3491 PWs)   bands (ev):

   -95.4536 -95.4536 -55.9724 -55.9724 -55.8587 -55.8587 -55.7917 -55.7917
   -16.5865 -16.4729 -16.1582 -16.1277  -0.0220   0.1705   1.2939   1.3598
     1.8490   1.8977   2.2067   2.3011   2.4097   2.6582   3.1006   3.2352
     6.3086   6.3846   6.4122   6.4718   6.7985   6.8913   7.4566   7.6388
     7.8901   7.9079  13.3425  14.2597  16.1927  16.8106  20.5966  21.1690
    21.7762  22.0559  23.1349  23.7015  25.4197  25.8396  26.2616  26.9934
    28.2627  28.6181  30.2189  30.7937  32.5562  32.9949  34.2063  34.6322
    35.4835  36.1855  37.7604  38.1594  38.5807  39.1712  39.5628  39.9511
    40.5632  41.0889  42.7447  43.1497  43.4829  43.8753  44.4670

          k = 0.1000 0.2879 0.0000 (  3491 PWs)   bands (ev):

   -95.4536 -95.4536 -55.9725 -55.9723 -55.8587 -55.8587 -55.7917 -55.7917
   -16.6509 -16.4928 -16.1025 -16.0928   0.0305   0.3317   1.4232   1.4630
     1.6038   1.6858   1.9203   2.0367   2.2860   2.6188   3.4152   3.5371
     6.4255   6.4393   6.5128   6.5261   6.7525   6.8961   7.5088   7.6680
     7.8624   8.0313  12.6711  13.7627  17.1543  17.4251  19.6446  19.8846
    21.8257  22.6299  23.0452  23.9105  25.0631  25.0765  27.1233  27.6082
    29.6995  30.0917  30.8006  31.1085  32.8076  32.9175  33.0057  33.7408
    35.8182  36.2656  36.9135  37.0710  37.8991  37.9151  40.0316  40.1441
    40.6888  40.9971  42.3927  43.3191  43.5572  43.6311  44.5873

          k = 0.1000 0.2879 0.0941 (  3489 PWs)   bands (ev):

   -95.4536 -95.4536 -55.9725 -55.9723 -55.8587 -55.8587 -55.7917 -55.7917
   -16.6328 -16.4845 -16.1223 -16.1013   0.0022   0.2747   1.3510   1.4346
     1.7059   1.7334   2.0159   2.1426   2.3008   2.6209   3.3413   3.4675
     6.3886   6.4279   6.4642   6.5269   6.7650   6.8970   7.4956   7.6699
     7.8710   7.9816  12.8601  13.9172  16.7467  17.2392  19.8486  20.2802
    21.8927  22.5684  23.0745  23.8956  24.9703  25.3762  26.9043  27.4836
    29.4123  29.8404  29.8912  30.9995  32.3712  33.0169  34.3076  34.4008
    35.6951  36.4099  36.7630  36.8779  38.0670  38.3617  39.8714  40.0906
    40.5494  40.8679  42.3602  43.2445  43.7035  43.8095  44.0795

          k = 0.1000 0.2879 0.1882 (  3498 PWs)   bands (ev):

   -95.4536 -95.4536 -55.9724 -55.9724 -55.8587 -55.8587 -55.7917 -55.7917
   -16.5835 -16.4689 -16.1617 -16.1311  -0.0434   0.1448   1.2921   1.3597
     1.8645   1.8993   2.1843   2.3288   2.3667   2.6563   3.1463   3.2877
     6.3087   6.3818   6.4135   6.4728   6.8007   6.8923   7.4676   7.6427
     7.8947   7.9093  13.3673  14.3155  16.0228  16.6574  20.4874  21.0119
    22.0635  22.3819  23.0614  23.6879  25.2289  25.7135  26.4969  27.0264
    28.2785  28.5725  30.2147  31.3625  32.4863  33.4374  34.0883  34.5705
    35.1117  36.1112  37.6099  37.7351  38.6060  39.0545  39.5277  39.9094
    40.4980  41.0732  42.3429  42.8459  43.4425  43.7531  44.4728

          k = 0.1000 0.2879 0.2822 (  3507 PWs)   bands (ev):

   -95.4536 -95.4536 -55.9724 -55.9724 -55.8587 -55.8587 -55.7917 -55.7917
   -16.5202 -16.4739 -16.1857 -16.1688  -0.0461   0.0206   1.2790   1.3035
     2.0135   2.0355   2.2707   2.3451   2.6014   2.7673   2.9234   3.0603
     6.2644   6.3065   6.3927   6.4178   6.8404   6.8729   7.4767   7.5498
     7.9026   7.9160  14.0528  14.5947  15.5276  15.9666  21.2400  21.6354
    22.1912  22.2811  22.9100  23.1611  25.6111  25.7874  26.3590  26.6446
    27.5394  27.7587  30.9639  31.8489  32.3732  33.2077  33.8832  34.3784
    34.6065  35.3793  38.3361  38.4586  38.7101  39.1058  40.0327  40.4888
    40.6371  41.0450  42.7362  42.9254  43.3370  43.5508  45.2562

          k = 0.2000 0.0000 0.0000 (  3498 PWs)   bands (ev):

   -95.4535 -95.4534 -55.9754 -55.9748 -55.8585 -55.8585 -55.7914 -55.7913
   -16.8134 -16.1507 -16.1334 -16.1193  -0.3876   0.7367   1.2354   1.3788
     1.3984   1.4480   2.0353   2.1455   2.1904   3.2055   3.2200   3.6292
     6.2871   6.4039   6.4540   6.4812   6.5032   7.0468   7.1711   7.7391
     7.7488   8.2480  11.5980  17.1836  17.2379  17.3361  19.6059  20.2599
    20.5714  21.9819  22.0648  22.2830  24.3248  26.0285  26.8781  27.8193
    29.1721  30.1702  31.4753  31.7545  32.3534  34.9457  35.1863  35.6998
    35.7408  35.9977  36.4007  36.4276  38.3669  38.6256  39.0581  39.5974
    41.3871  41.7626  41.9475  42.5378  43.3729  43.5918  44.0240

          k = 0.2000 0.0000 0.0941 (  3493 PWs)   bands (ev):

   -95.4535 -95.4534 -55.9754 -55.9749 -55.8585 -55.8585 -55.7913 -55.7913
   -16.7853 -16.2094 -16.1295 -16.0957  -0.3052   0.7384   1.1518   1.3947
     1.4021   1.5837   1.9567   2.0576   2.1781   3.1794   3.2059   3.6003
     6.3402   6.3719   6.4607   6.4983   6.5568   7.0433   7.1941   7.6606
     7.7312   8.2774  11.8045  16.4178  17.3370  17.8720  19.7626  20.1916
    20.4773  21.9925  22.0041  22.4978  24.4119  25.7537  26.7010  27.8241
    29.4915  29.5227  31.6966  31.7590  32.7224  33.9708  35.0690  35.4252
    35.6997  36.0784  37.0415  37.2835  37.3771  38.8316  39.5015  39.8266
    41.4439  41.8316  42.1871  42.4357  43.4264  43.4423  44.0173

          k = 0.2000 0.0000 0.1882 (  3508 PWs)   bands (ev):

   -95.4535 -95.4534 -55.9753 -55.9749 -55.8585 -55.8585 -55.7913 -55.7913
   -16.7053 -16.3166 -16.1188 -16.0859  -0.0732   0.7107   1.0883   1.3899
     1.4174   1.6175   1.8337   2.0640   2.1167   3.0407   3.2115   3.5159
     6.3751   6.4525   6.4865   6.5075   6.6589   6.9788   7.2849   7.5040
     7.7485   8.2528  12.3908  15.3826  17.7595  18.2007  19.7001  20.0321
    20.9044  21.6387  21.7227  23.1375  25.1121  25.1293  25.6904  27.9615
    29.2815  29.8344  31.5317  31.9408  32.6092  33.3980  34.3064  35.1197
    35.6294  36.4641  36.9512  37.8865  38.6569  38.6819  39.2377  40.6997
    40.8681  41.6321  42.1190  42.6893  43.3520  43.7886  44.1220

          k = 0.2000 0.0000 0.2822 (  3498 PWs)   bands (ev):

   -95.4535 -95.4535 -55.9752 -55.9751 -55.8585 -55.8585 -55.7913 -55.7913
   -16.5867 -16.4494 -16.1045 -16.0915   0.2556   0.5626   1.1050   1.2451
     1.4560   1.4706   1.9084   1.9440   2.3789   2.7470   3.2872   3.4027
     6.4244   6.4650   6.5401   6.5497   6.7664   6.8740   7.3411   7.3870
     7.8898   8.1036  13.2612  14.2955  18.2534  18.3756  19.5224  19.9139
    20.8030  21.2388  22.5774  23.5375  24.2702  24.4421  26.5499  27.8002
    29.4320  29.4837  31.3193  31.5240  32.6715  33.1680  34.5531  35.1275
    36.0771  36.1559  37.3513  37.5037  37.9348  38.2237  40.2040  41.0355
    41.2394  41.5497  42.2942  42.3932  43.8066  43.9786  44.9802

          k = 0.2000 0.0960 0.0000 (  3502 PWs)   bands (ev):

   -95.4535 -95.4534 -55.9754 -55.9749 -55.8585 -55.8585 -55.7913 -55.7913
   -16.7843 -16.2050 -16.1178 -16.1128  -0.3114   0.7189   1.2485   1.2668
     1.3837   1.6461   1.9576   2.0994   2.1365   3.1715   3.2120   3.6209
     6.3353   6.3884   6.4584   6.4788   6.5706   7.0304   7.2149   7.6485
     7.7413   8.2767  11.8155  16.4583  17.3174  17.6573  19.9885  20.1973
    20.3926  21.6903  21.9952  22.8617  24.4144  25.5965  27.3152  27.4115
    29.0007  30.7031  30.8459  32.1888  32.4840  34.3674  34.5253  34.9514
    35.5655  36.5562  37.0632  37.1841  37.9645  38.6324  39.3512  39.7828
    40.9683  41.9375  42.2288  42.5357  42.8916  43.6924  44.2131

          k = 0.2000 0.0960 0.0941 (  3492 PWs)   bands (ev):

   -95.4535 -95.4534 -55.9753 -55.9749 -55.8585 -55.8585 -55.7913 -55.7913
   -16.7576 -16.2331 -16.1382 -16.0936  -0.2510   0.7117   1.1425   1.3345
     1.4076   1.7188   1.8560   2.0693   2.1732   3.1570   3.1807   3.5882
     6.3435   6.3647   6.4854   6.5171   6.5951   7.0186   7.2299   7.5884
     7.7440   8.2762  12.0165  16.3162  16.8918  18.0958  19.8246  20.1633
    20.5477  21.8937  22.0096  22.9537  24.3922  25.2408  27.2219  27.6131
    29.2498  29.8683  30.8545  32.4732  32.5600  33.4238  34.2474  35.8973
    36.1061  36.3561  36.8969  37.5584  37.8806  38.3475  39.5040  39.8760
    40.9091  42.1960  42.3234  42.8020  43.2244  43.4388  43.6380

          k = 0.2000 0.0960 0.1882 (  3497 PWs)   bands (ev):

   -95.4535 -95.4534 -55.9753 -55.9750 -55.8585 -55.8585 -55.7913 -55.7913
   -16.6819 -16.3204 -16.1352 -16.0907  -0.0794   0.6389   1.0832   1.3498
     1.3997   1.6765   1.9346   2.1204   2.1250   3.0385   3.1585   3.4932
     6.3676   6.3937   6.4956   6.5657   6.6710   6.9596   7.2848   7.5153
     7.7465   8.2159  12.5828  15.4485  17.1074  18.3412  19.4403  20.3687
    21.0759  21.5496  22.0917  23.3314  24.5182  24.9374  26.3654  27.9390
    29.4097  29.7838  30.7266  31.9213  32.3879  32.6845  34.4307  35.7925
    36.2477  36.5521  37.1779  37.6158  38.4455  38.7691  39.3549  40.2867
    40.7816  41.8417  42.4235  42.9176  43.1128  43.7279  44.1944

          k = 0.2000 0.0960 0.2822 (  3495 PWs)   bands (ev):

   -95.4535 -95.4535 -55.9752 -55.9751 -55.8585 -55.8585 -55.7913 -55.7913
   -16.5700 -16.4416 -16.1194 -16.1019   0.1727   0.4431   1.0986   1.1969
     1.5249   1.6141   1.9888   2.0299   2.3922   2.7535   3.2341   3.3630
     6.4203   6.4542   6.4934   6.5522   6.7637   6.8632   7.3576   7.4489
     7.8561   8.0557  13.4188  14.4118  17.5797  18.0734  19.6491  20.1726
    21.2252  21.5440  22.3990  23.2917  24.1989  25.0475  26.3665  27.6849
    29.4975  29.6738  30.8335  31.5034  31.9857  32.3164  35.0226  35.8787
    36.0378  36.4843  37.1261  37.6741  38.2668  38.5861  40.1035  40.4349
    41.1046  41.2065  42.7113  43.0848  43.6869  43.9764  44.9596

          k = 0.2000 0.1919 0.0000 (  3494 PWs)   bands (ev):

   -95.4535 -95.4534 -55.9753 -55.9749 -55.8585 -55.8585 -55.7913 -55.7913
   -16.7017 -16.3072 -16.1137 -16.1041  -0.1003   0.6398   1.1974   1.3026
     1.3946   1.7142   1.8980   1.9461   2.1170   3.0121   3.2633   3.5729
     6.3960   6.4398   6.4759   6.5069   6.6714   6.9634   7.3147   7.4874
     7.7654   8.2587  12.4222  15.4308  17.5325  17.8046  19.7286  20.3598
    20.9257  21.3561  21.8752  23.3712  24.9639  25.1569  26.0199  27.9995
    29.1282  30.7213  31.5929  31.9273  32.1866  33.5513  34.3735  34.6214
    34.9252  36.0098  37.4010  37.9378  38.4109  38.4509  39.6729  40.3447
    40.6459  41.7206  42.2448  43.2483  43.2700  43.7286  44.0353

          k = 0.2000 0.1919 0.0941 (  3493 PWs)   bands (ev):

   -95.4535 -95.4534 -55.9753 -55.9750 -55.8585 -55.8585 -55.7913 -55.7913
   -16.6793 -16.3134 -16.1376 -16.0981  -0.0974   0.5931   1.1242   1.3480
     1.3910   1.7036   1.9789   2.0135   2.1516   3.0032   3.2168   3.5298
     6.3732   6.3939   6.4920   6.5652   6.6747   6.9507   7.3009   7.5066
     7.7580   8.2211  12.6049  15.5081  16.9181  18.0850  19.4759  20.5568
    21.1378  21.5373  21.9371  23.5506  24.4334  25.0235  26.4646  27.9898
    29.3882  30.1844  30.7282  31.7405  32.5346  32.9233  33.9409  35.3314
    35.9776  36.4998  37.3105  37.6752  38.2475  38.6642  39.8064  40.0228
    40.7165  41.7715  42.4496  43.1581  43.4512  43.6192  43.8301

          k = 0.2000 0.1919 0.1882 (  3501 PWs)   bands (ev):

   -95.4535 -95.4535 -55.9752 -55.9750 -55.8585 -55.8585 -55.7913 -55.7913
   -16.6162 -16.3479 -16.1597 -16.1080  -0.0609   0.4354   1.0547   1.2189
     1.5625   1.7888   2.1062   2.1276   2.2317   2.9865   3.0836   3.4096
     6.3594   6.3806   6.4986   6.5721   6.7049   6.9069   7.3306   7.5488
     7.7425   8.1051  13.1138  15.4656  16.3631  17.8134  19.5515  21.0424
    21.1189  21.8376  22.0526  23.5193  24.4919  24.7768  26.8345  27.6843
    29.2488  29.8146  30.1200  31.1886  32.1512  32.8829  34.2340  35.1415
    36.3233  36.6301  37.6253  38.1724  38.3937  38.8913  39.9098  40.3389
    40.7578  42.0063  42.5347  42.9010  43.3138  43.6630  44.3632

          k = 0.2000 0.1919 0.2822 (  3493 PWs)   bands (ev):

   -95.4535 -95.4535 -55.9752 -55.9751 -55.8585 -55.8585 -55.7913 -55.7913
   -16.5250 -16.4261 -16.1533 -16.1303   0.0461   0.2253   1.0442   1.1003
     1.7634   1.8300   2.1340   2.1939   2.4616   2.7819   3.0993   3.2473
     6.3897   6.4237   6.4746   6.4993   6.7627   6.8355   7.4389   7.5447
     7.7854   7.9359  13.8583  14.7259  16.6417  17.2148  20.0256  20.6169
    21.7632  22.0053  22.1848  22.7002  24.9491  25.6502  26.1581  27.2887
    29.0246  29.4431  30.2704  30.7024  32.3796  32.7226  34.5747  35.1972
    35.6417  36.0885  37.8639  37.9913  38.9975  39.2208  40.4566  40.5985
    41.0686  41.3853  42.9647  43.1956  43.6814  44.0789  44.6462

          k = 0.2000 0.2879 0.0000 (  3484 PWs)   bands (ev):

   -95.4535 -95.4535 -55.9752 -55.9751 -55.8585 -55.8585 -55.7913 -55.7913
   -16.5797 -16.4397 -16.1085 -16.1043   0.1894   0.4624   1.2236   1.3402
     1.4371   1.4773   1.8423   1.8757   2.3751   2.7286   3.3686   3.4827
     6.4325   6.4586   6.5407   6.5577   6.7675   6.8645   7.3507   7.3762
     7.9176   8.1242  13.3059  14.3438  17.7689  17.8561  19.6213  19.9935
    21.0754  21.5186  22.5754  23.7134  24.1757  24.3204  26.8312  27.8985
    29.8319  30.6539  30.8318  31.1597  32.7977  33.5751  34.0627  34.8912
    35.1017  35.5701  36.9774  37.2395  37.9547  38.3985  40.2671  40.9337
    41.2762  41.3951  43.1272  43.1332  43.2878  43.9826  44.4053

          k = 0.2000 0.2879 0.0941 (  3489 PWs)   bands (ev):

   -95.4535 -95.4535 -55.9752 -55.9751 -55.8585 -55.8585 -55.7913 -55.7913
   -16.5641 -16.4333 -16.1254 -16.1103   0.1285   0.3795   1.1432   1.2371
     1.5466   1.6411   1.9242   1.9899   2.3821   2.7297   3.3128   3.4297
     6.4229   6.4517   6.4941   6.5600   6.7619   6.8587   7.3606   7.4423
     7.8786   8.0728  13.4593  14.4641  17.2673  17.7156  19.6723  20.1953
    21.4288  21.7492  22.3758  23.4705  24.0206  24.8814  26.7206  27.8541
    30.0153  30.3412  30.3957  31.1123  32.1786  32.6315  34.2077  35.1278
    36.1792  36.4919  36.7307  37.2997  38.2582  38.6034  40.0989  40.6950
    41.0055  41.2946  42.7729  43.1940  43.5466  44.0061  44.6358

          k = 0.2000 0.2879 0.1882 (  3491 PWs)   bands (ev):

   -95.4535 -95.4535 -55.9752 -55.9751 -55.8585 -55.8585 -55.7913 -55.7913
   -16.5219 -16.4217 -16.1572 -16.1340   0.0309   0.2061   1.0499   1.1071
     1.7859   1.8431   2.0983   2.1862   2.4402   2.7523   3.1579   3.2839
     6.3915   6.4234   6.4705   6.5046   6.7622   6.8353   7.4388   7.5393
     7.7968   7.9444  13.8846  14.7769  16.5021  17.0901  20.0128  20.6065
    21.7857  22.0234  22.2824  22.8193  24.6835  25.3919  26.6217  27.6436
    28.8818  29.1842  30.6494  31.0822  32.3465  32.4737  34.2128  34.8094
    35.7026  36.1136  37.8713  38.0444  38.9600  39.1780  40.3447  40.7278
    40.8820  41.5764  42.7072  42.7777  43.4975  44.0094  44.6824

          k = 0.2000 0.2879 0.2822 (  3488 PWs)   bands (ev):

   -95.4535 -95.4535 -55.9751 -55.9751 -55.8585 -55.8585 -55.7913 -55.7913
   -16.4679 -16.4280 -16.1767 -16.1637  -0.0036   0.0587   1.0071   1.0263
     1.9534   1.9624   2.2491   2.2803   2.6245   2.8015   2.9772   3.0888
     6.3614   6.3990   6.4485   6.4755   6.7724   6.7998   7.5417   7.6014
     7.7404   7.8062  14.4848  14.9706  16.0078  16.3928  20.5460  21.1265
    21.2342  21.8323  22.5989  22.6620  25.6630  26.0163  26.5031  27.0823
    27.8877  27.9480  31.0826  31.2180  32.7606  32.8726  34.1877  34.3634
    35.1457  35.3400  37.8139  37.8423  39.6945  39.7584  40.8467  41.1664
    41.2719  41.5235  42.9494  43.0901  44.1641  44.4771  44.9190

          k = 0.3000 0.0000 0.0000 (  3528 PWs)   bands (ev):

   -95.4534 -95.4533 -55.9787 -55.9783 -55.8583 -55.8583 -55.7909 -55.7908
   -16.6710 -16.1843 -16.1229 -16.1127  -0.0807   0.7776   1.0483   1.2053
     1.3703   1.5684   1.7586   2.1249   2.1252   2.9850   3.0024   3.3894
     6.3560   6.4309   6.5523   6.6048   6.6229   6.9476   7.3175   7.5698
     7.5846   7.9843  12.7672  17.2646  18.1780  18.2152  19.3447  19.8923
    20.1276  21.8966  21.9033  22.2121  23.0408  25.6712  25.9710  26.4362
    28.4797  30.0370  30.4373  32.4613  32.9006  35.6655  35.6694  35.7499
    37.2684  37.7902  37.8858  38.1725  38.8786  39.2697  39.8110  40.6827
    41.0329  42.0473  42.3918  42.5105  42.9543  43.3002  43.8877

          k = 0.3000 0.0000 0.0941 (  3501 PWs)   bands (ev):

   -95.4534 -95.4533 -55.9787 -55.9783 -55.8583 -55.8583 -55.7909 -55.7908
   -16.6480 -16.2104 -16.1220 -16.1119  -0.0229   0.7910   0.9486   1.2746
     1.3435   1.4313   1.8617   2.1105   2.1179   3.0027   3.0049   3.3978
     6.3815   6.3899   6.5556   6.5877   6.6593   6.9452   7.3030   7.4470
     7.6260   8.1054  12.9246  16.9805  17.9473  18.3459  19.5231  19.8578
    20.3176  21.6073  21.9991  22.0186  23.5393  24.9191  25.6275  27.6435
    28.3758  29.6200  30.7870  32.5394  33.4761  34.5593  35.0518  36.3334
    36.7432  37.4141  37.7002  37.7882  39.2976  39.8947  40.0149  41.1375
    41.2442  41.5772  41.8455  42.5560  42.7772  43.3880  44.3045

          k = 0.3000 0.0000 0.1882 (  3489 PWs)   bands (ev):

   -95.4534 -95.4533 -55.9786 -55.9784 -55.8583 -55.8583 -55.7909 -55.7908
   -16.5830 -16.2809 -16.1197 -16.1120   0.1438   0.8040   0.8359   1.0894
     1.3650   1.3691   1.9139   2.0151   2.2598   2.9710   3.0734   3.3871
     6.3310   6.4573   6.5232   6.5771   6.7401   6.9202   7.2395   7.2565
     7.8004   8.2231  13.3916  16.1039  17.9873  18.6661  19.4313  19.7254
    21.0779  21.2388  21.4110  22.1932  23.9372  24.4791  25.3414  28.1287
    29.1038  29.4732  31.3969  32.6018  33.6396  33.6477  34.4941  34.5985
    36.8340  37.4402  37.7900  38.0310  38.6290  39.6542  39.9313  40.9810
    41.0347  41.7123  42.6447  43.1415  43.3383  43.4766  44.5325

          k = 0.3000 0.0000 0.2822 (  3500 PWs)   bands (ev):

   -95.4533 -95.4533 -55.9785 -55.9784 -55.8583 -55.8583 -55.7909 -55.7909
   -16.4877 -16.3800 -16.1166 -16.1137   0.4001   0.7044   0.7933   0.8242
     1.4199   1.4490   1.8274   1.8736   2.5677   2.8298   3.1920   3.3124
     6.3493   6.4156   6.5577   6.5880   6.8175   6.8760   7.1455   7.1570
     8.0250   8.1929  14.1352  15.0783  18.2546  18.6064  19.6703  20.0253
    20.4905  20.4943  22.4375  22.5842  23.1931  23.7007  26.4720  27.6679
    29.8008  29.9009  31.6561  32.3542  32.9624  33.4504  34.1157  35.0992
    35.8655  35.9371  38.0873  38.3001  39.2461  39.2958  39.9966  40.6241
    40.9713  41.4650  43.3108  43.3384  43.6038  44.1904  44.5636

          k = 0.3000 0.0960 0.0000 (  3510 PWs)   bands (ev):

   -95.4534 -95.4533 -55.9787 -55.9783 -55.8583 -55.8583 -55.7909 -55.7908
   -16.6469 -16.2025 -16.1291 -16.1139  -0.0232   0.7760   1.0158   1.2123
     1.3278   1.4532   1.8980   2.0836   2.0924   2.9629   3.0376   3.4244
     6.3857   6.3933   6.5559   6.5743   6.6733   6.9324   7.3180   7.4291
     7.6414   8.1032  12.9358  17.0318  17.8494  18.2583  19.6388  19.8578
    20.3052  21.5065  21.6775  22.6125  23.4298  24.7051  26.1604  27.0325
    28.4939  30.4405  30.4692  32.4055  32.9653  34.8238  35.1982  35.7390
    36.8845  37.2471  37.6533  38.2183  39.6776  39.7145  40.0313  40.7056
    40.7641  41.3529  42.0872  42.9275  43.1885  43.6118  44.1097

          k = 0.3000 0.0960 0.0941 (  3497 PWs)   bands (ev):

   -95.4534 -95.4533 -55.9786 -55.9783 -55.8583 -55.8583 -55.7909 -55.7908
   -16.6253 -16.2231 -16.1313 -16.1137   0.0027   0.7683   1.0061   1.1433
     1.3116   1.4251   1.9726   2.0468   2.1459   2.9739   3.0403   3.4257
     6.3592   6.4080   6.5647   6.5892   6.6707   6.9302   7.2330   7.5224
     7.5758   8.1658  13.0885  16.8683  17.7530  18.1488  19.4013  20.2334
    20.4521  21.2541  21.6642  23.0514  23.4224  24.2489  25.9856  27.8459
    28.4564  29.8684  30.6553  32.4251  33.4426  33.9709  34.8788  36.2696
    36.4111  37.2942  37.6101  38.2438  38.7755  39.9425  40.1010  40.8244
    41.2820  41.8245  42.2170  42.7928  43.3360  43.4031  43.9329

          k = 0.3000 0.0960 0.1882 (  3497 PWs)   bands (ev):

   -95.4533 -95.4533 -55.9786 -55.9784 -55.8583 -55.8583 -55.7909 -55.7908
   -16.5643 -16.2846 -16.1309 -16.1159   0.0912   0.6805   0.9512   1.0337
     1.2556   1.4962   1.9520   2.0641   2.2922   2.9861   3.0550   3.4005
     6.3303   6.4497   6.5383   6.5945   6.7231   6.9056   7.1420   7.4117
     7.7374   8.2186  13.5384  16.1289  17.7383  18.4309  18.9098  20.3104
    20.8414  21.1151  21.8632  22.8406  23.2982  24.7006  25.5414  28.2901
    28.9932  29.7114  31.0514  31.8416  33.2408  33.3811  34.4332  35.6462
    36.5196  37.4471  37.6994  38.2688  38.5713  39.0948  40.0114  41.2343
    41.3420  41.8324  42.6701  43.3065  43.4169  43.9392  44.5932

          k = 0.3000 0.0960 0.2822 (  3491 PWs)   bands (ev):

   -95.4533 -95.4533 -55.9785 -55.9784 -55.8583 -55.8583 -55.7909 -55.7909
   -16.4753 -16.3753 -16.1264 -16.1207   0.2560   0.4812   0.8950   0.8996
     1.4343   1.5245   1.8893   1.9429   2.5913   2.8472   3.1758   3.3105
     6.3604   6.4335   6.5332   6.5773   6.7961   6.8560   7.1498   7.2625
     7.9647   8.1487  14.2510  15.1548  17.9972  18.3936  18.9999  19.6968
    21.1038  21.6152  21.7632  22.4476  23.3906  24.4424  26.3321  27.7164
    29.5306  29.9897  31.5279  31.8519  32.3280  32.7982  34.3387  35.0406
    36.5475  37.3655  37.6985  37.8742  38.9291  39.3328  39.8437  40.6071
    41.3809  41.6543  43.0173  43.3705  44.0488  44.5345  44.7094

          k = 0.3000 0.1919 0.0000 (  3489 PWs)   bands (ev):

   -95.4534 -95.4533 -55.9786 -55.9784 -55.8583 -55.8583 -55.7909 -55.7908
   -16.5789 -16.2671 -16.1324 -16.1175   0.1412   0.7446   0.9301   1.1896
     1.2673   1.3562   1.8994   1.9580   2.2463   2.8995   3.1394   3.4536
     6.3563   6.4472   6.5213   6.5756   6.7508   6.8896   7.2340   7.2678
     7.8231   8.2230  13.4265  16.1598  17.8188  18.4230  19.4404  19.9075
    20.9655  21.2373  21.4113  22.4273  23.8622  24.8216  25.3285  27.6660
    29.2710  30.7271  31.2988  31.8747  33.3992  33.7751  33.7820  34.4417
    36.7792  37.1045  37.7913  38.1271  38.7854  39.4542  40.4113  40.9598
    41.0719  41.4677  42.2793  43.1956  43.2284  43.8294  44.7207

          k = 0.3000 0.1919 0.0941 (  3494 PWs)   bands (ev):

   -95.4533 -95.4533 -55.9786 -55.9784 -55.8583 -55.8583 -55.7909 -55.7908
   -16.5613 -16.2749 -16.1402 -16.1196   0.0910   0.6659   0.9920   1.0857
     1.2027   1.4854   1.9412   2.0265   2.2828   2.9121   3.1281   3.4437
     6.3425   6.4517   6.5373   6.5921   6.7264   6.8842   7.1493   7.4054
     7.7563   8.2199  13.5629  16.1835  17.5599  18.4049  18.8565  20.4586
    20.9183  21.0041  21.7432  22.9397  23.4032  24.7853  25.5791  28.0539
    29.2230  30.2553  30.8151  32.1397  32.5161  33.6863  34.0204  34.9687
    36.4086  37.5090  38.0366  38.4568  38.7350  38.9490  40.0851  41.0057
    41.4886  41.7626  42.1459  43.0499  43.6675  44.1135  44.6016

          k = 0.3000 0.1919 0.1882 (  3500 PWs)   bands (ev):

   -95.4533 -95.4533 -55.9786 -55.9784 -55.8583 -55.8583 -55.7909 -55.7909
   -16.5122 -16.3061 -16.1506 -16.1274   0.0368   0.4532   0.9411   0.9543
     1.3819   1.5984   1.9584   2.1270   2.4320   2.9799   3.0659   3.3942
     6.3529   6.4468   6.5544   6.5965   6.6922   6.8610   7.1471   7.5692
     7.6332   8.1642  13.9607  16.0389  17.0845  18.2264  18.6302  20.3704
    20.6059  21.6641  22.0987  22.6284  24.1982  24.5766  25.9450  28.5475
    28.9550  29.5614  30.6233  31.2494  32.3821  33.1752  34.4497  34.9521
    37.1133  37.1200  37.6267  38.3978  38.9659  39.2343  39.7038  40.9502
    41.5780  42.5802  42.9172  43.3206  43.8940  44.1501  44.6589

          k = 0.3000 0.1919 0.2822 (  3502 PWs)   bands (ev):

   -95.4533 -95.4533 -55.9785 -55.9784 -55.8583 -55.8583 -55.7909 -55.7909
   -16.4419 -16.3666 -16.1491 -16.1389   0.0749   0.2247   0.8800   0.8859
     1.5891   1.6435   1.9882   2.0875   2.6819   2.9159   3.1198   3.2789
     6.4052   6.4593   6.5211   6.5348   6.7352   6.8046   7.2598   7.4267
     7.8172   8.0208  14.5840  15.3572  17.2027  17.6502  19.0789  19.6968
    20.9820  21.5651  22.2736  22.5864  24.5046  25.3866  26.0790  27.7322
    29.0225  29.6803  30.1776  30.9157  32.4572  33.0950  34.4906  34.6081
    36.8695  36.8960  37.6425  38.2336  39.1535  39.2404  40.1993  41.2632
    41.6146  42.3840  42.5607  42.9620  44.5906  45.1051  45.6237

          k = 0.3000 0.2879 0.0000 (  3490 PWs)   bands (ev):

   -95.4533 -95.4533 -55.9785 -55.9784 -55.8583 -55.8583 -55.7909 -55.7909
   -16.4794 -16.3677 -16.1287 -16.1229   0.3845   0.6270   0.8789   0.9470
     1.3864   1.4394   1.7560   1.7959   2.5355   2.7652   3.2770   3.3991
     6.3736   6.4246   6.5560   6.5892   6.8024   6.8377   7.1412   7.1816
     8.0470   8.2035  14.1868  15.1329  18.0363  18.3276  19.5664  20.1949
    20.3028  20.7733  22.5372  22.6193  23.2180  23.9257  26.5861  27.6265
    30.5665  30.6108  31.1303  32.1775  32.4652  33.0563  33.8562  34.5937
    35.3701  35.7606  38.2587  38.5158  39.1546  39.2708  40.1036  40.3389
    41.4195  41.7302  42.6742  42.8146  43.8446  43.9317  44.7581

          k = 0.3000 0.2879 0.0941 (  3490 PWs)   bands (ev):

   -95.4533 -95.4533 -55.9785 -55.9784 -55.8583 -55.8583 -55.7909 -55.7909
   -16.4683 -16.3648 -16.1368 -16.1282   0.2543   0.4716   0.9209   0.9438
     1.4270   1.5289   1.8394   1.8813   2.5577   2.7808   3.2586   3.3819
     6.3779   6.4469   6.5291   6.5783   6.7814   6.8315   7.1568   7.2638
     7.9833   8.1586  14.2955  15.2074  17.7707  18.1648  19.0990  19.8358
    21.0486  21.2505  22.1516  22.5919  23.3860  24.4803  26.5161  27.7988
    30.2161  30.5035  30.6818  31.6149  32.6138  33.0481  33.1458  34.3717
    36.2621  37.0200  38.2059  38.4098  39.0266  39.4387  39.7747  40.2794
    41.6162  41.6956  42.6078  42.7571  43.8722  44.1245  44.9853

          k = 0.3000 0.2879 0.1882 (  3498 PWs)   bands (ev):

   -95.4533 -95.4533 -55.9785 -55.9784 -55.8583 -55.8583 -55.7909 -55.7909
   -16.4383 -16.3614 -16.1544 -16.1428   0.0766   0.2261   0.8834   0.8875
     1.5980   1.6493   1.9677   2.0682   2.6549   2.8541   3.1876   3.3163
     6.4158   6.4707   6.5154   6.5327   6.7275   6.7971   7.2599   7.4209
     7.8289   8.0268  14.6091  15.3972  17.1027  17.5648  19.1298  19.8153
    20.8297  21.3977  22.4984  22.7134  24.3250  25.1589  26.4950  28.1050
    29.2135  29.3204  30.3551  30.7286  32.4633  33.0264  33.8417  34.4776
    36.8031  36.9538  37.9219  38.4739  39.2748  39.3219  40.1085  40.9344
    41.3845  42.0472  42.8301  43.2341  44.1972  44.4282  45.7713

          k = 0.3000 0.2879 0.2822 (  3503 PWs)   bands (ev):

   -95.4533 -95.4533 -55.9785 -55.9785 -55.8583 -55.8583 -55.7909 -55.7909
   -16.4002 -16.3707 -16.1656 -16.1593  -0.0018   0.0512   0.8351   0.8364
     1.7036   1.7108   2.1019   2.1571   2.8395   2.9929   3.0570   3.1862
     6.4599   6.4788   6.4946   6.5478   6.6817   6.7299   7.4237   7.5653
     7.6840   7.8391  15.0754  15.4684  16.6448  16.9256  19.5312  20.0440
    20.2914  20.7930  23.0351  23.1512  25.4096  25.8719  26.5573  27.7313
    28.1320  28.4611  30.0284  30.3009  32.8732  33.1197  34.4106  34.6815
    36.5786  36.6343  37.1152  37.4659  39.7412  39.8502  41.0813  41.1909
    41.9169  42.2075  42.7547  43.2018  45.2005  45.5590  45.9154

          k = 0.4000 0.0000 0.0000 (  3500 PWs)   bands (ev):

   -95.4532 -95.4532 -55.9813 -55.9811 -55.8581 -55.8581 -55.7905 -55.7905
   -16.5122 -16.2540 -16.1136 -16.1081   0.2555   0.7506   0.8349   1.0627
     1.2941   1.4356   1.9378   2.0212   2.1675   2.8661   2.9023   3.0395
     6.4464   6.5077   6.5937   6.7114   6.7233   6.7950   7.4481   7.4651
     7.4772   7.7323  14.0828  16.6013  18.9391  19.1030  19.2217  19.5041
    20.2743  21.5872  21.6174  21.9031  22.8297  24.8247  25.1145  25.5653
    29.5729  29.6052  29.6303  32.2648  33.7606  36.2406  36.2624  36.2871
    36.5258  37.3161  38.4222  38.5043  40.2674  40.7842  41.3161  41.3429
    41.9309  41.9554  42.3761  43.2042  43.2360  43.4750  44.4800

          k = 0.4000 0.0000 0.0941 (  3502 PWs)   bands (ev):

   -95.4532 -95.4532 -55.9813 -55.9811 -55.8581 -55.8581 -55.7905 -55.7905
   -16.4958 -16.2567 -16.1186 -16.1170   0.2664   0.7603   0.7710   0.9326
     1.3685   1.4489   1.9451   1.9472   2.2932   2.8874   2.8953   3.0893
     6.4398   6.4602   6.5914   6.6190   6.7576   6.8552   7.2793   7.2959
     7.6847   7.9356  14.1970  16.6580  18.1206  19.1123  19.4788  19.5270
    20.6124  21.1850  21.7675  21.8973  23.1117  23.9230  25.3148  26.4503
    29.0006  29.4072  30.6234  32.7109  33.7509  35.3201  35.7158  35.9865
    37.0820  37.3849  37.8093  38.4893  39.7817  40.0734  40.7537  40.8250
    41.6654  42.2942  43.1220  43.1383  43.7754  44.3095  44.4743

          k = 0.4000 0.0000 0.1882 (  3512 PWs)   bands (ev):

   -95.4532 -95.4532 -55.9813 -55.9811 -55.8581 -55.8581 -55.7905 -55.7905
   -16.4501 -16.2733 -16.1387 -16.1262   0.2833   0.6237   0.7260   0.8710
     1.4212   1.4958   1.7963   1.9161   2.5409   2.8765   2.9601   3.1851
     6.3319   6.4460   6.5233   6.5900   6.8222   6.8925   7.1064   7.1373
     7.9430   8.1616  14.5495  16.7063  17.2453  18.5394  19.7749  19.8191
    20.9001  21.2722  21.5314  21.7629  22.8964  23.4959  25.8126  27.2322
    29.2850  29.4481  31.7468  33.0547  33.7786  34.1768  34.5439  35.5182
    36.5775  36.8389  37.2791  38.2921  38.8482  39.6262  40.7801  40.7987
    41.8583  42.3057  43.0785  43.4894  44.2168  44.3980  45.4777

          k = 0.4000 0.0000 0.2822 (  3506 PWs)   bands (ev):

   -95.4532 -95.4532 -55.9812 -55.9812 -55.8581 -55.8581 -55.7905 -55.7905
   -16.3854 -16.3191 -16.1458 -16.1381   0.3178   0.4275   0.7847   0.8650
     1.4387   1.5514   1.6985   1.8146   2.7408   2.8358   3.0950   3.2047
     6.2842   6.3341   6.5529   6.5797   6.8723   6.8974   7.0154   7.0352
     8.1588   8.2466  15.1502  15.9647  17.3707  17.8929  20.0598  20.3735
    20.4922  21.0923  21.6846  22.1199  22.2642  23.0567  26.7473  27.3833
    29.8636  29.9339  32.6883  32.9692  33.2439  33.4309  34.0211  35.0536
    35.3830  35.7554  37.6442  38.6438  38.9275  39.0479  40.6864  40.7451
    42.2476  42.3821  43.3929  43.7138  43.7829  44.7077  45.5759

          k = 0.4000 0.0960 0.0000 (  3513 PWs)   bands (ev):

   -95.4532 -95.4532 -55.9813 -55.9811 -55.8581 -55.8581 -55.7905 -55.7905
   -16.4944 -16.2517 -16.1286 -16.1136   0.2808   0.7608   0.8025   0.9723
     1.2934   1.4327   1.8769   2.0021   2.2903   2.8143   2.9330   3.1389
     6.4515   6.4589   6.5915   6.6243   6.7622   6.8267   7.2826   7.2966
     7.6950   7.9352  14.2063  16.6562  18.1571  19.0435  19.3970  19.5941
    20.5606  21.0987  21.7398  22.4210  22.9616  23.8891  25.4928  25.8694
    29.4662  29.7913  30.4217  32.6781  33.0739  35.0596  35.4511  36.5847
    36.9177  37.1524  38.5189  38.5567  39.5584  40.0351  40.5778  41.3713
    41.6579  42.0379  43.0226  43.1921  43.6385  44.2709  44.5766

          k = 0.4000 0.0960 0.0941 (  3500 PWs)   bands (ev):

   -95.4532 -95.4532 -55.9813 -55.9811 -55.8581 -55.8581 -55.7905 -55.7905
   -16.4794 -16.2553 -16.1348 -16.1185   0.2316   0.7354   0.8620   0.8859
     1.1978   1.5221   1.9037   1.9672   2.3755   2.8559   2.9351   3.1713
     6.3979   6.4724   6.5902   6.6602   6.6733   6.8798   7.1192   7.4679
     7.5980   8.0728  14.3145  16.7010  17.9879  18.6450  18.9753  20.3108
    20.3925  21.1771  21.5764  22.7018  22.8923  23.8295  25.2040  26.7165
    29.0332  29.7165  30.8502  32.7542  33.3580  34.9135  34.9633  36.0981
    36.9382  37.3893  37.9646  38.3390  39.0851  39.7463  40.5013  40.8023
    42.4505  42.7729  43.1020  43.4431  43.7547  43.9610  44.9704

          k = 0.4000 0.0960 0.1882 (  3501 PWs)   bands (ev):

   -95.4532 -95.4532 -55.9813 -55.9811 -55.8581 -55.8581 -55.7905 -55.7905
   -16.4378 -16.2737 -16.1470 -16.1288   0.1714   0.5495   0.7825   0.9498
     1.2503   1.5590   1.8515   1.9162   2.5908   2.9292   2.9653   3.2340
     6.3216   6.4788   6.5375   6.5886   6.7535   6.9003   7.0234   7.3071
     7.8226   8.2109  14.6471  16.6852  17.3146  18.4491  18.7677  20.0383
    20.9284  21.0243  21.9396  22.2955  22.7648  24.0704  25.5467  27.5076
    29.0439  29.6458  31.4666  32.4929  33.3988  34.0171  35.0556  35.4625
    36.3318  36.9929  37.5826  38.1628  38.5493  39.1855  40.4192  41.3589
    42.2423  42.8812  43.3203  43.6027  44.0585  44.8055  45.3520

          k = 0.4000 0.0960 0.2822 (  3498 PWs)   bands (ev):

   -95.4532 -95.4532 -55.9812 -55.9812 -55.8581 -55.8581 -55.7905 -55.7905
   -16.3790 -16.3181 -16.1492 -16.1406   0.1913   0.3225   0.8128   0.8910
     1.4467   1.5752   1.7583   1.8106   2.7905   2.8931   3.1146   3.2313
     6.3021   6.3700   6.5488   6.5738   6.8302   6.8824   7.0243   7.1327
     8.0704   8.2165  15.2124  15.9786  17.4158  17.8870  19.1246  19.6174
    21.0443  21.5042  21.5524  22.1401  22.9469  23.7279  26.6147  27.4989
    29.5055  29.9805  31.4382  32.4479  33.1157  33.2472  34.5236  34.9457
    36.3522  36.8771  37.4677  37.7263  38.4971  39.0702  40.4793  41.2069
    42.3401  42.8970  43.5725  43.9559  44.2569  44.7789  45.0621

          k = 0.4000 0.1919 0.0000 (  3495 PWs)   bands (ev):

   -95.4532 -95.4532 -55.9813 -55.9811 -55.8581 -55.8581 -55.7905 -55.7905
   -16.4446 -16.2555 -16.1602 -16.1287   0.3494   0.7234   0.7443   0.8398
     1.2965   1.4890   1.7267   1.9283   2.4965   2.7425   3.0464   3.2899
     6.3584   6.4558   6.5249   6.5906   6.8094   6.8339   7.1001   7.1785
     7.9585   8.1623  14.5795  16.7084  17.2743  18.4977  19.6199  19.8867
    20.8639  21.0046  21.8037  22.0038  22.9396  23.8197  25.5499  26.5355
    30.2396  30.4861  31.4965  31.8865  33.0417  33.4651  34.6263  35.7134
    36.6376  36.8454  37.1724  38.6091  39.6022  39.8429  40.1185  41.4154
    41.5491  42.0873  43.0583  43.2848  43.9556  44.4875  45.6127

          k = 0.4000 0.1919 0.0941 (  3500 PWs)   bands (ev):

   -95.4532 -95.4532 -55.9813 -55.9811 -55.8581 -55.8581 -55.7905 -55.7905
   -16.4338 -16.2614 -16.1613 -16.1314   0.2054   0.6152   0.7968   0.9320
     1.1796   1.5566   1.8028   1.9240   2.5463   2.8132   3.0579   3.3035
     6.3370   6.4928   6.5415   6.5879   6.7332   6.8589   7.0478   7.3098
     7.8350   8.2127  14.6683  16.6914  17.3311  18.4101  18.7354  20.2321
    20.6840  20.9387  21.9316  22.4410  22.9762  24.3332  25.2022  27.1132
    29.5845  30.1569  31.5444  32.2220  32.5802  33.6149  34.9456  35.2712
    36.2797  37.1881  37.5008  38.3990  39.2637  39.3755  40.3218  41.0947
    42.3625  42.7261  42.9891  43.4363  43.7619  44.7636  45.1553

          k = 0.4000 0.1919 0.1882 (  3500 PWs)   bands (ev):

   -95.4532 -95.4532 -55.9812 -55.9812 -55.8581 -55.8581 -55.7905 -55.7905
   -16.4040 -16.2819 -16.1612 -16.1384   0.0513   0.3557   0.7844   0.9323
     1.3288   1.5829   1.8159   1.9480   2.7175   2.9659   3.0680   3.3197
     6.3271   6.5130   6.5771   6.6045   6.6289   6.8690   7.0355   7.4602
     7.6954   8.2106  14.9396  16.5246  17.4141  17.8679  18.5036  19.6603
    20.1566  21.2601  22.0747  22.8392  24.0049  24.7527  25.1744  28.0345
    29.0259  29.2713  30.7571  32.3795  32.9731  33.0362  34.2400  35.7466
    36.7746  36.8530  37.7978  38.0768  38.5222  39.3501  40.3875  41.4057
    41.9415  43.1504  43.4184  43.9034  44.3545  45.0352  45.0922

          k = 0.4000 0.1919 0.2822 (  3504 PWs)   bands (ev):

   -95.4532 -95.4532 -55.9812 -55.9812 -55.8581 -55.8581 -55.7905 -55.7905
   -16.3620 -16.3177 -16.1562 -16.1475   0.0198   0.1294   0.7881   0.8384
     1.5510   1.6007   1.7981   1.8983   2.9114   3.0261   3.1436   3.2763
     6.3657   6.4594   6.5448   6.5600   6.7300   6.8240   7.1299   7.3116
     7.8767   8.0908  15.3965  15.9977  17.4620  17.6556  18.5964  19.0787
    20.1882  20.6527  22.7250  23.1800  24.2242  24.7616  26.3575  27.7124
    28.9762  29.5748  29.8421  31.2229  33.0364  33.2778  34.6302  35.2492
    36.4260  36.7507  38.0694  38.2991  38.5853  39.4773  40.5329  40.6041
    42.1463  43.0959  43.3935  43.7768  44.8793  45.4755  45.8547

          k = 0.4000 0.2879 0.0000 (  3500 PWs)   bands (ev):

   -95.4532 -95.4532 -55.9812 -55.9812 -55.8581 -55.8581 -55.7905 -55.7905
   -16.3734 -16.2995 -16.1671 -16.1495   0.4466   0.5737   0.7354   0.7845
     1.3753   1.5382   1.6244   1.7900   2.6207   2.6842   3.2276   3.3381
     6.3154   6.3584   6.5508   6.5802   6.8157   6.8192   7.0487   7.0925
     8.1713   8.2517  15.1954  16.0052  17.3610  17.8623  20.0880  20.2671
    20.6285  20.7700  21.6363  22.0398  22.7243  23.4172  26.5956  27.0609
    30.7625  31.0101  31.6646  31.6684  32.5970  33.3761  34.0269  34.9680
    35.2248  35.8126  37.5480  38.5002  39.2743  39.7383  40.5779  41.1152
    41.9673  42.4466  42.5437  43.3380  44.1094  44.7259  45.3873

          k = 0.4000 0.2879 0.0941 (  3504 PWs)   bands (ev):

   -95.4532 -95.4532 -55.9812 -55.9812 -55.8581 -55.8581 -55.7905 -55.7905
   -16.3690 -16.3024 -16.1661 -16.1502   0.2613   0.4120   0.7903   0.8413
     1.4170   1.5843   1.6962   1.7889   2.6789   2.7611   3.2352   3.3424
     6.3270   6.3961   6.5458   6.5734   6.7901   6.8255   7.0595   7.1520
     8.0813   8.2220  15.2504  16.0153  17.3913  17.8354  19.1743  19.8241
    20.6788  21.0155  21.9281  22.3510  23.1234  23.9441  26.4521  27.3352
    30.2058  30.3888  31.3240  31.8352  32.3411  33.1366  33.8989  34.8194
    36.1879  36.7536  37.6338  38.5472  38.7759  39.0605  40.4550  41.1328
    42.5034  42.6921  43.1207  43.5506  44.0330  44.5609  45.1291

          k = 0.4000 0.2879 0.1882 (  3491 PWs)   bands (ev):

   -95.4532 -95.4532 -55.9812 -55.9812 -55.8581 -55.8581 -55.7905 -55.7905
   -16.3571 -16.3109 -16.1635 -16.1524   0.0439   0.1589   0.7762   0.8178
     1.5550   1.6028   1.7824   1.8849   2.8462   2.9318   3.2337   3.3344
     6.3798   6.4853   6.5369   6.5584   6.7092   6.8047   7.1376   7.3112
     7.8845   8.0946  15.4161  16.0200  17.4160  17.6108  18.6676  19.3074
    19.9559  20.5282  22.8272  23.3341  24.1395  24.7670  26.3534  27.8530
    29.1804  29.3783  30.1714  30.9473  32.6506  33.0264  34.2624  35.1815
    36.7387  37.1711  38.0262  38.2305  38.7133  39.4227  40.4021  40.5019
    42.2456  42.7703  43.7076  43.9744  44.6418  45.3677  45.4177

          k = 0.4000 0.2879 0.2822 (  3502 PWs)   bands (ev):

   -95.4532 -95.4532 -55.9812 -55.9812 -55.8581 -55.8581 -55.7905 -55.7905
   -16.3409 -16.3244 -16.1597 -16.1558  -0.0584  -0.0165   0.7482   0.7620
     1.5924   1.6080   1.8979   1.9561   3.0380   3.1138   3.1846   3.2701
     6.4716   6.5316   6.5451   6.5948   6.6056   6.7213   7.3081   7.4536
     7.7267   7.8867  15.6742  15.9239  17.3120  17.3286  18.7676  19.2228
    19.4328  19.8740  23.5582  23.7791  25.2937  25.4988  26.6474  27.6173
    28.5163  28.7906  29.2367  29.9738  32.8833  32.9723  34.9685  35.2057
    36.5924  37.2749  37.4845  38.1209  39.3397  40.0120  40.3482  40.8040
    42.2457  42.3100  43.3474  43.5388  45.6147  46.1592  46.2216

          k =-0.5000 0.0000 0.0000 (  3510 PWs)   bands (ev):

   -95.4531 -95.4531 -55.9822 -55.9822 -55.8581 -55.8581 -55.7904 -55.7904
   -16.3660 -16.3660 -16.1082 -16.1082   0.5639   0.5639   0.8184   0.8184
     1.4447   1.4447   1.8510   1.8510   2.6136   2.6136   2.8638   2.8638
     6.5433   6.5433   6.6386   6.6386   6.7586   6.7586   7.4358   7.4358
     7.5627   7.5627  15.4179  15.4179  19.0664  19.0664  19.6503  19.6503
    20.8489  20.8489  21.4997  21.4997  23.6626  23.6626  25.1430  25.1430
    29.3459  29.3459  31.1150  31.1150  34.8943  34.8943  36.7965  36.7965
    37.0201  37.0201  38.1595  38.1595  40.9077  40.9077  41.7979  41.7979
    42.0010  42.0010  42.3321  42.3321  43.9613  43.9613  44.3417

          k =-0.5000 0.0000 0.0941 (  3510 PWs)   bands (ev):

   -95.4531 -95.4531 -55.9822 -55.9822 -55.8581 -55.8581 -55.7904 -55.7904
   -16.3575 -16.3575 -16.1165 -16.1165   0.5233   0.5233   0.7729   0.7729
     1.5153   1.5153   1.8077   1.8077   2.6972   2.6972   2.8662   2.8662
     6.5356   6.5356   6.5488   6.5488   6.8182   6.8182   7.2451   7.2451
     7.7990   7.7990  15.5018  15.5018  18.6065  18.6065  19.8592  19.8592
    20.7306  20.7306  21.8071  21.8071  23.2137  23.2137  25.6582  25.6582
    29.1429  29.1429  31.7320  31.7320  34.6203  34.6203  36.0447  36.0447
    37.5515  37.5515  38.0075  38.0075  39.6699  39.6699  40.8251  40.8251
    41.7450  41.7450  43.9442  43.9442  44.5631  44.5632  45.2889

          k =-0.5000 0.0000 0.1882 (  3512 PWs)   bands (ev):

   -95.4531 -95.4531 -55.9822 -55.9822 -55.8581 -55.8581 -55.7904 -55.7904
   -16.3356 -16.3356 -16.1379 -16.1379   0.3772   0.3772   0.8070   0.8070
     1.5643   1.5643   1.7419   1.7419   2.8055   2.8055   2.9540   2.9540
     6.3858   6.3858   6.5522   6.5522   6.8759   6.8759   7.0754   7.0754
     8.0697   8.0697  15.7662  15.7662  17.7675  17.7675  20.1421  20.1421
    20.8465  20.8465  21.8248  21.8248  22.7169  22.7169  26.4502  26.4502
    29.3211  29.3211  32.7215  32.7215  33.8951  33.8951  35.2288  35.2288
    36.8108  36.8108  37.6160  37.6160  38.9616  38.9616  40.6067  40.6067
    42.0123  42.0123  43.9040  43.9040  45.8017  45.8017  46.0572

          k =-0.5000 0.0000 0.2822 (  3504 PWs)   bands (ev):

   -95.4531 -95.4531 -55.9822 -55.9822 -55.8581 -55.8581 -55.7904 -55.7904
   -16.3137 -16.3137 -16.1593 -16.1593   0.2641   0.2641   0.8845   0.8845
     1.4971   1.4971   1.7457   1.7457   2.8103   2.8103   3.1096   3.1096
     6.2775   6.2775   6.5565   6.5565   6.9032   6.9032   6.9874   6.9874
     8.2383   8.2383  16.2325  16.2325  16.9349  16.9349  20.3619  20.3619
    21.1757  21.1757  21.4899  21.4899  22.3638  22.3638  27.1019  27.1019
    29.8897  29.8897  32.9644  32.9644  33.6182  33.6182  34.1903  34.1903
    36.4768  36.4768  37.0055  37.0055  39.0050  39.0050  40.4263  40.4263
    42.8604  42.8604  43.6559  43.6559  45.6183  45.6183  47.0335

          k =-0.5000 0.0960 0.0000 (  3510 PWs)   bands (ev):

   -95.4531 -95.4531 -55.9822 -55.9822 -55.8581 -55.8581 -55.7904 -55.7904
   -16.3551 -16.3551 -16.1190 -16.1190   0.5538   0.5538   0.7859   0.7859
     1.4437   1.4437   1.8261   1.8261   2.6566   2.6566   2.9118   2.9118
     6.5403   6.5403   6.5592   6.5592   6.7960   6.7960   7.2509   7.2509
     7.8033   7.8033  15.5066  15.5066  18.6230  18.6230  19.8503  19.8503
    20.5692  20.5692  22.1378  22.1378  23.1882  23.1882  25.3626  25.3626
    29.5396  29.5396  31.6149  31.6149  34.0268  34.0268  36.2375  36.2375
    37.4145  37.4145  38.4243  38.4243  39.6203  39.6203  41.0102  41.0102
    41.8417  41.8417  43.8276  43.8276  44.0445  44.0445  45.4186

          k =-0.5000 0.0960 0.0941 (  3504 PWs)   bands (ev):

   -95.4531 -95.4531 -55.9822 -55.9822 -55.8581 -55.8581 -55.7904 -55.7904
   -16.3564 -16.3389 -16.1355 -16.1167   0.3353   0.6540   0.7797   0.8090
     1.2548   1.6919   1.7328   1.8569   2.6737   2.7740   2.8798   2.9744
     6.4404   6.5439   6.5500   6.6190   6.6951   6.8795   7.0780   7.4327
     7.6258   8.0406  15.5076  15.6639  18.2296  18.6247  19.3509  19.7186
    20.6172  21.2648  21.9241  22.2528  22.6244  23.7331  25.0132  26.2874
    29.0534  29.5536  31.6091  32.5587  33.6456  34.3350  35.2042  36.3899
    36.9119  37.7426  37.8644  38.5983  39.2586  39.3281  40.1033  40.3054
    42.6863  42.8152  43.6695  43.7891  44.0584  44.6291  45.8252

          k =-0.5000 0.0960 0.1882 (  3506 PWs)   bands (ev):

   -95.4531 -95.4531 -55.9822 -55.9822 -55.8581 -55.8581 -55.7904 -55.7904
   -16.3424 -16.3162 -16.1574 -16.1296   0.1801   0.4212   0.7870   0.9487
     1.2785   1.6616   1.7650   1.8076   2.8555   2.8770   2.8962   3.0838
     6.3340   6.4700   6.5489   6.5593   6.7656   6.9065   6.9942   7.2651
     7.8583   8.2079  15.6797  15.9894  17.4376  18.0790  19.3817  19.4420
    21.1868  21.3048  21.4927  22.1365  22.9812  23.4796  25.7689  27.0993
    29.0189  29.5525  31.6691  33.4416  33.4536  34.0300  34.6909  35.2630
    36.6289  37.2939  37.4160  38.2042  38.2266  38.5700  40.5197  40.9513
    42.4512  42.8559  43.7624  44.1921  45.0934  45.1021  45.7772

          k =-0.5000 0.0960 0.2822 (  3514 PWs)   bands (ev):

   -95.4531 -95.4531 -55.9822 -55.9822 -55.8581 -55.8581 -55.7904 -55.7904
   -16.3201 -16.3059 -16.1666 -16.1517   0.1342   0.2191   0.8414   0.9229
     1.4584   1.6455   1.6700   1.7411   2.8901   2.9032   3.0971   3.1677
     6.2834   6.3333   6.5566   6.5606   6.8442   6.8989   6.9888   7.0870
     8.1114   8.2409  16.0486  16.4554  16.7195  17.2532  19.5698  19.5751
    20.8538  20.9312  21.9736  22.4260  22.9505  23.0049  26.8244  27.3700
    29.5095  29.9530  31.3777  32.4574  33.2326  33.4484  35.2958  35.6371
    36.0987  36.4561  37.5525  37.5725  37.7626  37.9525  40.9182  41.3758
    42.9035  43.0662  43.8656  44.2247  45.0658  45.4001  46.0109

          k =-0.5000 0.1919 0.0000 (  3494 PWs)   bands (ev):

   -95.4531 -95.4531 -55.9822 -55.9822 -55.8581 -55.8581 -55.7904 -55.7904
   -16.3258 -16.3258 -16.1481 -16.1481   0.4871   0.4871   0.7809   0.7809
     1.4316   1.4316   1.7805   1.7805   2.6523   2.6523   3.1020   3.1020
     6.4117   6.4117   6.5521   6.5521   6.8186   6.8186   7.1092   7.1092
     8.0767   8.0767  15.7812  15.7812  17.7905  17.7905  20.2141  20.2141
    20.5379  20.5379  22.2081  22.2081  22.8380  22.8380  25.8899  25.8899
    30.2969  30.2969  32.3778  32.3778  32.7494  32.7494  35.2991  35.2991
    36.9388  36.9388  37.7601  37.7601  39.2763  39.2763  40.9142  40.9142
    41.7556  41.7556  44.0034  44.0034  45.2924  45.2925  46.0749

          k =-0.5000 0.1919 0.0941 (  3508 PWs)   bands (ev):

   -95.4531 -95.4531 -55.9822 -55.9822 -55.8581 -55.8581 -55.7904 -55.7904
   -16.3363 -16.3077 -16.1662 -16.1360   0.2258   0.5128   0.7796   0.9273
     1.1880   1.6738   1.6896   1.8478   2.6601   2.7960   3.0784   3.1614
     6.3499   6.4994   6.5483   6.5599   6.7264   6.8532   7.0361   7.2710
     7.8672   8.2110  15.6928  15.9949  17.4707  18.0589  19.3905  19.5227
    20.9240  21.1624  21.5244  22.5040  23.1802  23.7214  25.1998  26.7830
    29.5440  30.0774  31.9468  32.3799  32.9528  33.7703  34.6559  35.0282
    36.6381  37.1941  37.7960  38.2330  38.4216  39.5016  40.2245  40.8086
    42.4725  43.1920  43.5545  43.9191  44.1497  45.8795  46.0501

          k =-0.5000 0.1919 0.1882 (  3510 PWs)   bands (ev):

   -95.4531 -95.4531 -55.9822 -55.9822 -55.8581 -55.8581 -55.7904 -55.7904
   -16.3342 -16.2957 -16.1767 -16.1361   0.0349   0.2795   0.7701   0.9419
     1.3218   1.6161   1.7449   1.8562   2.8759   2.9490   3.0839   3.2321
     6.3216   6.5529   6.5573   6.5808   6.6240   6.8736   7.0120   7.4249
     7.7110   8.2302  15.7450  16.3218  16.9994  18.3760  18.5038  19.0247
    20.4539  20.6075  22.2306  23.2486  23.8199  24.5540  25.0600  27.7518
    29.0428  29.1589  30.8493  32.8664  32.9327  33.4494  34.8102  35.1491
    36.3558  36.7006  37.8117  38.1535  38.9878  39.1671  39.9281  41.0280
    42.3407  43.2994  43.7439  44.3315  44.7014  45.4019  46.3334

          k =-0.5000 0.1919 0.2822 (  3508 PWs)   bands (ev):

   -95.4531 -95.4531 -55.9822 -55.9822 -55.8581 -55.8581 -55.7904 -55.7904
   -16.3208 -16.3030 -16.1674 -16.1488  -0.0222   0.0681   0.7826   0.8403
     1.5707   1.6481   1.6623   1.8012   3.0439   3.0643   3.1393   3.2460
     6.3470   6.4402   6.5608   6.5654   6.7357   6.8375   7.0864   7.2693
     7.8976   8.1174  15.9624  16.3354  16.9573  17.6225  18.7436  18.9629
    19.9867  20.0539  23.0259  23.7020  24.0416  24.1991  26.5024  27.6254
    29.0100  29.5821  29.6996  31.2043  33.1810  33.3967  35.2174  35.5755
    36.4507  36.7274  37.4050  37.8851  38.5732  38.9631  41.0206  41.0757
    41.9431  43.1889  43.8058  44.2676  45.2823  45.6900  46.2203

          k =-0.5000 0.2879 0.0000 (  3504 PWs)   bands (ev):

   -95.4531 -95.4531 -55.9822 -55.9822 -55.8581 -55.8581 -55.7904 -55.7904
   -16.2921 -16.2921 -16.1816 -16.1816   0.4136   0.4136   0.8199   0.8199
     1.4017   1.4017   1.7605   1.7605   2.6156   2.6156   3.2757   3.2757
     6.3089   6.3089   6.5556   6.5556   6.8111   6.8111   7.0562   7.0562
     8.2444   8.2444  16.2451  16.2451  16.9806  16.9806  20.6338  20.6338
    20.7098  20.7098  21.4551  21.4551  22.8280  22.8280  26.7529  26.7529
    31.0363  31.0363  31.3185  31.3185  33.7163  33.7163  34.1281  34.1281
    36.2610  36.2610  36.9146  36.9146  39.6380  39.6380  40.5542  40.5542
    42.3420  42.3420  43.9956  43.9956  45.8341  45.8342  46.3264

          k =-0.5000 0.2879 0.0941 (  3490 PWs)   bands (ev):

   -95.4531 -95.4531 -55.9822 -55.9822 -55.8581 -55.8581 -55.7904 -55.7904
   -16.3051 -16.2867 -16.1863 -16.1672   0.2233   0.3315   0.8022   0.8593
     1.4031   1.5891   1.6756   1.7564   2.6899   2.7522   3.2696   3.2991
     6.3101   6.3637   6.5556   6.5600   6.7880   6.8221   7.0464   7.1161
     8.1189   8.2455  16.0709  16.4324  16.7931  17.2578  19.7293  19.8051
    20.4989  20.5698  22.0109  22.5790  23.2333  23.2932  26.4414  27.1758
    30.2364  30.2730  31.5790  31.6431  32.2660  33.3041  35.0051  35.2263
    36.0246  36.2713  37.4993  37.7861  38.2896  38.8757  40.6042  41.2177
    42.7910  43.1497  44.1311  44.2196  44.4331  45.5653  46.0927

          k =-0.5000 0.2879 0.1882 (  3502 PWs)   bands (ev):

   -95.4531 -95.4531 -55.9822 -55.9822 -55.8581 -55.8581 -55.7904 -55.7904
   -16.3146 -16.2950 -16.1757 -16.1552   0.0101   0.1079   0.7635   0.8104
     1.5740   1.6355   1.6616   1.7930   2.9203   2.9605   3.2703   3.3194
     6.3623   6.4651   6.5601   6.5639   6.7076   6.8112   7.0999   7.2720
     7.9040   8.1204  15.9750  16.3400  16.9664  17.5798  18.9565  19.1261
    19.7780  19.8422  23.1144  23.8872  24.0559  24.2091  26.2728  27.7019
    29.1299  29.3601  30.2557  31.0543  32.6032  32.9035  35.1980  35.6649
    36.2511  37.1533  37.7688  37.9722  38.5684  38.8372  40.5905  40.8077
    42.5662  43.0912  44.0534  44.1238  45.0904  45.7170  46.1873

          k =-0.5000 0.2879 0.2822 (  3500 PWs)   bands (ev):

   -95.4531 -95.4531 -55.9822 -55.9822 -55.8581 -55.8581 -55.7904 -55.7904
   -16.3155 -16.3077 -16.1608 -16.1526  -0.0953  -0.0583   0.7313   0.7464
     1.5714   1.5969   1.8022   1.8681   3.1272   3.1327   3.2531   3.2932
     6.4541   6.5506   6.5649   6.5687   6.6264   6.7291   7.2665   7.4175
     7.7364   7.9035  15.9874  16.1238  17.3661  17.7252  18.5727  18.8645
    19.1739  19.2914  23.8379  24.1606  25.2128  25.2651  26.5572  27.4564
    28.6687  28.8928  29.0852  29.9633  32.8566  32.8851  35.1535  35.2208
    37.0451  37.4298  37.7437  38.6801  38.8635  39.0554  40.4194  41.3931
    41.7496  41.9633  43.9993  44.0248  46.0493  46.1345  46.4842

     the Fermi energy is     7.7176 ev

!    total energy              =    -881.03742351 Ry
     estimated scf accuracy    <          1.5E-09 Ry
     smearing contrib. (-TS)   =      -0.00015815 Ry
     internal energy E=F+TS    =    -881.03726536 Ry

     The total energy is F=E-TS. E is the sum of the following terms:
     one-electron contribution =    -625.96645559 Ry
     hartree contribution      =     343.86037510 Ry
     xc contribution           =    -108.40379483 Ry
     ewald contribution        =    -490.52739004 Ry

     convergence has been achieved in  13 iterations

     Forces acting on atoms (cartesian axes, Ry/au):

     atom    1 type  2   force =     0.00000000   -0.00000000    0.00000000
     atom    2 type  2   force =     0.00000000    0.00000000    0.00000000
     atom    3 type  1   force =     0.00000000    0.00061844   -0.00300432
     atom    4 type  1   force =     0.00000000   -0.00061844   -0.00300432
     atom    5 type  1   force =     0.00000000   -0.00061844    0.00300432
     atom    6 type  1   force =     0.00000000    0.00061844    0.00300432

     Total force =     0.006135     Total SCF correction =     0.000003


     Computing stress (Cartesian axis) and pressure

          total   stress  (Ry/bohr**3)                   (kbar)     P=       22.16
   0.00018164   0.00000000   0.00000000           26.72        0.00        0.00
   0.00000000   0.00013489   0.00000000            0.00       19.84        0.00
   0.00000000   0.00000000   0.00013531            0.00        0.00       19.90


     Writing all to output data dir ./pwscf.save/ :
     XML data file, charge density, pseudopotentials, collected wavefunctions

     init_run     :     30.47s CPU     15.91s WALL (       1 calls)
     electrons    :   7629.00s CPU   8553.87s WALL (       1 calls)
     forces       :     23.41s CPU     31.96s WALL (       1 calls)
     stress       :     51.73s CPU     76.64s WALL (       1 calls)

     Called by init_run:
     wfcinit      :     29.42s CPU     15.01s WALL (       1 calls)
     potinit      :      0.29s CPU      0.23s WALL (       1 calls)
     hinit0       :      0.31s CPU      0.30s WALL (       1 calls)

     Called by electrons:
     c_bands      :   6110.30s CPU   6589.40s WALL (      13 calls)
     sum_band     :   1501.26s CPU   1940.28s WALL (      13 calls)
     v_of_rho     :      2.56s CPU      2.85s WALL (      14 calls)
     newd         :     13.38s CPU     18.14s WALL (      14 calls)
     mix_rho      :      0.99s CPU      1.70s WALL (      13 calls)

     Called by c_bands:
     init_us_2    :      3.63s CPU      3.92s WALL (    2784 calls)
     cegterg      :   6084.04s CPU   6561.21s WALL (    1248 calls)

     Called by *egterg:
     cdiaghg      :    352.44s CPU    396.46s WALL (    4406 calls)
     h_psi        :   5248.63s CPU   5750.93s WALL (    4502 calls)
     s_psi        :     47.62s CPU     37.67s WALL (    4502 calls)
     g_psi        :      0.95s CPU      1.05s WALL (    3158 calls)

     Called by h_psi:
     h_psi:calbec :    133.18s CPU    107.82s WALL (    4502 calls)
     vloc_psi     :   5050.27s CPU   5590.31s WALL (    4502 calls)
                                        0.00s GPU  (    4502 calls)
     add_vuspsi   :     29.76s CPU     27.86s WALL (    4502 calls)

     General routines
     calbec       :    234.28s CPU    232.02s WALL (    7382 calls)
     fft          :      3.23s CPU      3.76s WALL (     205 calls)
     ffts         :      0.69s CPU      0.66s WALL (      27 calls)
     fftw         :   5549.03s CPU   6386.28s WALL (  511652 calls)
     interpolate  :      0.57s CPU      0.58s WALL (      14 calls)

     Parallel routines

     PWSCF        :      2h11m CPU      2h30m WALL


   This run was terminated on:  13:21: 3  16Apr2026            

=------------------------------------------------------------------------------=
   JOB DONE.
=------------------------------------------------------------------------------=
